/*--------------------------------*- C++ -*----------------------------------*\
| =========                 |                                                 |
| \\      /  F ield         | OpenFOAM: The Open Source CFD Toolbox           |
|  \\    /   O peration     | Version:  2212                                  |
|   \\  /    A nd           | Website:  www.openfoam.com                      |
|    \\/     M anipulation  |                                                 |
\*---------------------------------------------------------------------------*/
FoamFile
{
    version     2.0;
    format      ascii;
    arch        "LSB;label=32;scalar=64";
    class       surfaceScalarField;
    location    "0.35";
    object      alphaPhi0.water;
}
// * * * * * * * * * * * * * * * * * * * * * * * * * * * * * * * * * * * * * //

dimensions      [0 3 -1 0 0 0 0];

oriented        oriented;

internalField   nonuniform List<scalar> 
4419
(
-5.47685e-06
5.47685e-06
-6.3691e-06
8.92259e-07
-3.84113e-06
-2.52797e-06
1.65133e-07
-4.00627e-06
4.7315e-06
-4.56637e-06
9.50229e-06
-4.77079e-06
1.42661e-05
-4.76378e-06
1.89201e-05
-4.654e-06
2.34057e-05
-4.48568e-06
2.76724e-05
-4.26668e-06
3.16624e-05
-3.98998e-06
3.53013e-05
-3.63891e-06
3.84833e-05
-3.18201e-06
4.10485e-05
-2.56513e-06
4.27445e-05
-1.69604e-06
4.30426e-05
-2.98094e-07
4.10516e-05
1.99095e-06
3.59227e-05
5.12895e-06
2.68549e-05
9.06777e-06
1.39794e-05
1.28755e-05
-1.99043e-06
1.60288e-05
-1.14663e-05
9.42881e-06
-1.15133e-05
-3.44682e-06
8.92367e-06
-2.5075e-06
-4.70649e-08
3.20492e-07
-5.35596e-06
4.19269e-06
-7.87847e-06
8.6054e-06
-8.97908e-06
1.31872e-05
-9.35256e-06
1.77644e-05
-9.34098e-06
2.22377e-05
-9.12729e-06
2.65413e-05
-8.7893e-06
3.06191e-05
-8.34453e-06
3.44103e-05
-7.78118e-06
3.78391e-05
-7.06766e-06
4.0801e-05
-6.14392e-06
4.31522e-05
-4.91639e-06
4.46909e-05
-3.23466e-06
4.52158e-05
-8.23087e-07
4.44524e-05
2.75438e-06
4.16801e-05
7.90123e-06
3.58326e-05
1.49153e-05
2.59431e-05
2.2765e-05
1.23544e-05
2.96176e-05
8.11343e-07
2.12866e-05
-1.11235e-05
-1.35975e-06
1.02834e-05
2.47928e-07
-1.65474e-06
3.20038e-06
-8.30842e-06
7.02388e-06
-1.1702e-05
1.12617e-05
-1.32169e-05
1.56352e-05
-1.3726e-05
1.99946e-05
-1.37004e-05
2.42494e-05
-1.33821e-05
2.83359e-05
-1.28758e-05
3.2198e-05
-1.22066e-05
3.57749e-05
-1.13581e-05
3.89923e-05
-1.02851e-05
4.17514e-05
-8.90293e-06
4.39206e-05
-7.08564e-06
4.53228e-05
-4.63685e-06
4.57612e-05
-1.26153e-06
4.50245e-05
3.49112e-06
4.27825e-05
1.01432e-05
3.85566e-05
1.91412e-05
3.16334e-05
2.96883e-05
2.18203e-05
3.94306e-05
1.00029e-05
3.3231e-05
-1.10208e-06
3.80193e-07
9.90322e-06
2.4061e-06
-3.68065e-06
5.58112e-06
-1.14834e-05
9.38771e-06
-1.55086e-05
1.34885e-05
-1.73178e-05
1.76736e-05
-1.79111e-05
2.18242e-05
-1.7851e-05
2.58649e-05
-1.74228e-05
2.9739e-05
-1.67498e-05
3.33931e-05
-1.58608e-05
3.67687e-05
-1.47337e-05
3.9795e-05
-1.33114e-05
4.23798e-05
-1.14877e-05
4.44048e-05
-9.11062e-06
4.57202e-05
-5.95225e-06
4.61587e-05
-1.70009e-06
4.55555e-05
4.09432e-06
4.37296e-05
1.19691e-05
4.04654e-05
2.24054e-05
3.53105e-05
3.48432e-05
2.77622e-05
4.69789e-05
1.62328e-05
4.47604e-05
1.50718e-05
1.62603e-06
8.27719e-06
4.17741e-06
-6.23202e-06
7.6013e-06
-1.49073e-05
1.14449e-05
-1.93521e-05
1.54501e-05
-2.1323e-05
1.94711e-05
-2.19321e-05
2.34272e-05
-2.18071e-05
2.72637e-05
-2.12593e-05
3.09344e-05
-2.04205e-05
3.43914e-05
-1.93178e-05
3.75799e-05
-1.79222e-05
4.04341e-05
-1.61656e-05
4.28701e-05
-1.39237e-05
4.4784e-05
-1.10245e-05
4.60514e-05
-7.2196e-06
4.65401e-05
-2.18887e-06
4.6135e-05
4.4995e-06
4.47383e-05
1.33658e-05
4.22486e-05
2.48951e-05
3.83221e-05
3.87697e-05
3.22227e-05
5.30783e-05
2.1032e-05
5.5951e-05
3.6045e-05
2.4103e-06
5.86689e-06
5.59244e-06
-9.41416e-06
9.32469e-06
-1.86396e-05
1.32518e-05
-2.32792e-05
1.71936e-05
-2.52648e-05
2.10704e-05
-2.58089e-05
2.48451e-05
-2.55818e-05
2.84882e-05
-2.49024e-05
3.19664e-05
-2.38987e-05
3.52385e-05
-2.25899e-05
3.82549e-05
-2.09387e-05
4.09558e-05
-1.88664e-05
4.32665e-05
-1.62345e-05
4.50982e-05
-1.28562e-05
4.63498e-05
-8.47117e-06
4.69244e-05
-2.7635e-06
4.6755e-05
4.66892e-06
4.58088e-05
1.4312e-05
4.40567e-05
2.66472e-05
4.12098e-05
4.16166e-05
3.63445e-05
5.79436e-05
2.55653e-05
6.67302e-05
6.15466e-05
2.93824e-06
2.92864e-06
6.73809e-06
-1.3214e-05
1.08152e-05
-2.27167e-05
1.48534e-05
-2.73174e-05
1.87473e-05
-2.91587e-05
2.24892e-05
-2.95508e-05
2.6091e-05
-2.91836e-05
2.95504e-05
-2.83618e-05
3.28472e-05
-2.71955e-05
3.59475e-05
-2.56903e-05
3.8807e-05
-2.37981e-05
4.13724e-05
-2.14318e-05
4.35794e-05
-1.84414e-05
4.53536e-05
-1.46304e-05
4.66158e-05
-9.73342e-06
4.73025e-05
-3.45014e-06
4.73936e-05
4.5778e-06
4.69205e-05
1.4785e-05
4.59334e-05
2.76343e-05
4.42401e-05
4.33099e-05
4.09178e-05
6.12658e-05
3.10492e-05
7.65988e-05
9.25322e-05
3.34685e-06
-4.18212e-07
7.72125e-06
-1.75884e-05
1.21485e-05
-2.71439e-05
1.62963e-05
-3.14652e-05
2.01339e-05
-3.29964e-05
2.37356e-05
-3.31524e-05
2.71662e-05
-3.26141e-05
3.0449e-05
-3.16446e-05
3.35751e-05
-3.03216e-05
3.65163e-05
-2.86314e-05
3.92332e-05
-2.6515e-05
4.16795e-05
-2.38782e-05
4.38013e-05
-2.05632e-05
4.55385e-05
-1.63676e-05
4.68315e-05
-1.10265e-05
4.76469e-05
-4.26551e-06
4.80107e-05
4.21402e-06
4.80225e-05
1.47732e-05
4.78427e-05
2.78141e-05
4.74889e-05
4.36637e-05
4.62918e-05
6.24629e-05
3.79463e-05
8.49443e-05
0.000130415
-2.89845e-37
1.05124e-38
-4.50476e-36
1.56617e-36
-3.56276e-33
2.42313e-34
-1.16596e-30
1.17305e-32
-4.09378e-29
-1.94898e-30
-3.73938e-29
-9.67421e-29
-5.31591e-30
-4.08771e-28
1.84933e-31
-3.66473e-29
5.51725e-32
-9.08205e-31
3.85356e-33
-2.26896e-32
9.27685e-35
-5.85076e-33
3.34917e-37
-3.4081e-35
2.72387e-40
-2.35296e-38
5.15515e-44
7.22663e-43
2.60935e-46
4.12899e-45
5.84179e-49
2.47855e-47
8.11341e-52
9.0239e-50
2.6519e-52
1.74701e-52
2.00984e-54
-1.1901e-35
1.03353e-35
-1.05658e-32
1.1103e-32
-6.0289e-30
1.17444e-30
-1.4109e-27
3.05259e-29
-3.07656e-26
-2.58212e-27
-1.98051e-26
-4.84658e-26
-2.54289e-27
-4.59054e-26
1.30553e-28
-9.8541e-27
3.04949e-29
-9.00381e-28
2.18737e-30
-1.70087e-29
6.30065e-32
-3.68939e-30
2.69674e-34
-2.63771e-32
2.85297e-37
-2.4434e-35
4.52085e-41
1.83576e-39
3.24062e-43
1.31843e-41
6.70426e-46
9.18001e-44
1.06928e-48
3.73111e-46
1.01456e-51
8.59953e-49
7.53391e-52
-8.14589e-33
1.10457e-32
-4.2299e-30
6.66385e-30
-1.3432e-27
5.07348e-28
-3.63213e-25
8.71585e-27
-1.12898e-23
-1.81745e-24
-6.36133e-24
-4.8466e-23
-6.4953e-25
-2.21575e-23
4.84924e-26
-4.45381e-24
8.45948e-27
-3.75967e-25
6.44416e-28
-6.45683e-27
2.17925e-29
-1.19197e-27
1.11161e-31
-1.03136e-29
1.26159e-34
-1.10307e-32
1.95596e-38
1.06428e-36
1.10246e-40
8.17729e-39
2.87048e-43
5.6824e-41
6.21908e-46
2.41512e-43
6.52783e-49
5.97335e-46
6.04372e-49
-2.09865e-30
3.0676e-30
-1.37603e-27
2.47535e-27
-2.66658e-25
1.78092e-25
-1.09387e-22
1.70534e-24
-2.61999e-21
-6.98482e-21
-1.26817e-21
-7.2178e-21
-1.03836e-22
-6.54416e-21
1.29661e-23
-1.95327e-21
1.79074e-24
-1.20142e-22
1.35789e-25
-1.74837e-24
5.28577e-27
-2.71648e-25
3.31298e-29
-2.85334e-27
3.80584e-32
-3.42653e-30
5.8615e-36
3.80839e-34
3.13314e-38
3.12232e-36
1.07524e-40
2.23874e-38
2.76967e-43
1.00723e-40
3.30251e-46
2.68432e-43
3.06235e-46
-4.81305e-27
6.08359e-27
-1.78525e-24
4.32329e-24
-1.12657e-22
1.20584e-22
-2.54642e-20
2.03608e-22
-3.68347e-19
-5.23705e-20
-1.42003e-19
8.04739e-19
-7.42412e-21
-5.04464e-19
2.34906e-21
-1.23647e-19
3.8383e-22
-2.53843e-20
2.22911e-23
-3.87249e-22
1.00235e-24
-4.77052e-23
8.19864e-27
-6.37647e-25
1.0238e-29
-9.16243e-28
1.3421e-33
9.7159e-32
7.31826e-36
8.62149e-34
3.29618e-38
6.47346e-36
9.2015e-41
3.12623e-38
1.21934e-43
8.97264e-41
1.13474e-43
-4.65485e-25
7.01894e-25
-1.10377e-21
4.84898e-22
-3.30551e-21
8.1081e-21
-1.58036e-18
2.04282e-18
-3.88836e-17
8.58833e-17
-9.03683e-18
-4.78215e-17
2.55482e-19
-1.57698e-17
2.76196e-19
-1.26906e-18
6.23018e-20
-1.07501e-18
3.00243e-21
-4.8838e-20
1.51811e-22
-6.68018e-21
1.70495e-24
-1.16405e-22
2.5138e-27
-2.14958e-25
2.8112e-31
2.17054e-29
1.82183e-33
2.09331e-31
9.12055e-36
1.67825e-33
2.75859e-38
8.71243e-36
3.97616e-41
2.70025e-38
3.74565e-41
9.74831e-26
1.74305e-24
-3.8767e-19
8.06109e-20
-6.90453e-17
5.90587e-18
-1.06639e-16
5.08297e-17
-3.74403e-16
1.19449e-16
9.91958e-16
-2.9983e-15
3.64331e-16
1.36651e-16
6.13267e-17
1.42548e-16
3.30957e-18
1.64245e-17
3.24263e-19
-3.1243e-18
1.89766e-20
-7.86784e-19
3.01273e-22
-1.76436e-20
5.71603e-25
-4.49155e-23
5.86374e-29
4.69397e-27
4.56404e-31
4.90028e-29
2.47587e-33
4.24352e-31
8.13085e-36
2.37574e-33
1.26791e-38
7.97859e-36
1.2089e-38
3.87572e-25
2.49809e-24
1.07467e-22
8.05052e-20
9.63089e-21
5.89368e-18
1.48234e-12
-1.481e-12
4.25796e-13
9.74666e-13
1.24612e-12
-1.01464e-12
1.12057e-13
1.09892e-12
1.54508e-14
8.57991e-14
1.60941e-15
1.01491e-14
9.38401e-17
8.85114e-16
3.02717e-18
-1.36897e-17
4.80472e-20
-1.20466e-18
1.2856e-22
-5.99829e-21
1.21743e-26
9.90801e-25
1.11899e-28
1.12052e-26
6.63184e-31
1.05215e-28
2.37333e-33
6.38489e-31
4.01521e-36
2.33326e-33
3.86237e-36
8.41486e-06
-8.83308e-06
1.96099e-05
-2.87834e-05
3.00756e-05
-3.76096e-05
3.90675e-05
-4.04571e-05
4.68886e-05
-4.08174e-05
5.4009e-05
-4.02729e-05
6.07267e-05
-3.93319e-05
6.71475e-05
-3.80655e-05
7.32696e-05
-3.64437e-05
7.9043e-05
-3.44048e-05
8.43975e-05
-3.18695e-05
8.92569e-05
-2.87376e-05
9.35415e-05
-2.48478e-05
9.71694e-05
-1.99954e-05
0.000100069
-1.39262e-05
0.000102253
-6.44909e-06
0.000103917
2.54984e-06
0.00010549
1.31997e-05
0.000107754
2.5551e-05
0.000111797
3.96201e-05
0.000119185
5.50751e-05
0.000133098
7.10309e-05
9.68823e-05
0.000166417
1.07917e-05
-1.96248e-05
2.49548e-05
-4.29465e-05
3.62464e-05
-4.89011e-05
4.45361e-05
-4.87469e-05
5.12276e-05
-4.75089e-05
5.72957e-05
-4.63409e-05
6.31352e-05
-4.51713e-05
6.88119e-05
-4.37423e-05
7.42824e-05
-4.19141e-05
7.94802e-05
-3.96026e-05
8.43394e-05
-3.67287e-05
8.88091e-05
-3.32073e-05
9.28559e-05
-2.88946e-05
9.64516e-05
-2.35911e-05
9.9565e-05
-1.70397e-05
0.000102252
-9.13582e-06
0.000104841
-3.89044e-08
0.000107794
1.02458e-05
0.000112071
2.12745e-05
0.000118898
3.27928e-05
0.000129715
4.4258e-05
0.000145962
5.47837e-05
6.67837e-05
0.000176061
1.55548e-05
-3.51794e-05
3.36792e-05
-6.10704e-05
4.29875e-05
-5.53782e-05
4.87349e-05
-5.17739e-05
5.36956e-05
-5.0791e-05
5.86212e-05
-5.12359e-05
6.37013e-05
-5.0251e-05
6.87641e-05
-4.88047e-05
7.36846e-05
-4.68344e-05
7.83781e-05
-4.42959e-05
8.27821e-05
-4.11326e-05
8.68701e-05
-3.72952e-05
9.06616e-05
-3.26859e-05
9.41931e-05
-2.71225e-05
9.7458e-05
-2.03046e-05
0.00010053
-1.22082e-05
0.000103649
-3.15776e-06
0.000107354
6.54121e-06
0.000112365
1.62638e-05
0.000119598
2.55597e-05
0.000129635
3.42205e-05
0.000142838
4.15807e-05
4.66848e-05
0.000162937
2.25212e-05
-2.76029e-05
2.48441e-05
-2.21082e-05
2.39783e-05
-1.45763e-06
2.66468e-05
-7.47663e-09
3.16715e-05
-3.58496e-11
3.77415e-05
-1.90634e-13
4.32981e-05
-1.30331e-05
4.82951e-05
-1.44735e-05
5.30364e-05
-1.53593e-05
5.75403e-05
-1.57267e-05
6.18931e-05
-1.55782e-05
6.64118e-05
-1.50499e-05
7.14743e-05
-1.4369e-05
7.70144e-05
-1.34722e-05
8.24291e-05
-1.14028e-05
8.87054e-05
-8.23302e-06
9.6434e-05
-4.05581e-06
0.000103787
1.67494e-06
0.000110389
9.66114e-06
0.000117801
1.81479e-05
0.000127064
2.49579e-05
0.000138087
3.05568e-05
3.34451e-05
0.000151327
4.76489e-06
8.75937e-21
1.46514e-06
3.97253e-21
7.51267e-09
6.46324e-22
3.60414e-11
1.47276e-22
1.91846e-13
9.11418e-24
1.21271e-15
-1.79941e-21
8.83437e-07
-5.14894e-20
1.89685e-06
-1.11753e-18
2.81476e-06
-2.02256e-16
3.73029e-06
-2.72806e-16
4.67594e-06
-4.56547e-16
5.86685e-06
-4.51733e-15
7.70326e-06
-6.44453e-15
1.02747e-05
-2.32892e-15
1.29014e-05
-1.61362e-16
1.70281e-05
-7.97538e-18
2.60809e-05
-1.00596e-18
4.65751e-05
-1.23382e-14
8.01571e-05
3.01156e-07
0.000111033
4.38938e-06
0.000124667
1.2494e-05
0.000134556
2.06682e-05
2.30622e-05
0.000144939
-2.58074e-21
5.81541e-22
-1.35311e-21
4.15435e-22
-4.50687e-22
1.38386e-22
-1.0789e-22
5.13669e-23
-7.40775e-24
-9.06454e-23
1.04363e-23
-1.81725e-21
3.27813e-22
-5.18223e-20
7.56666e-21
-1.12521e-18
1.40397e-18
-2.03661e-16
2.69495e-18
-2.74647e-16
5.54153e-18
-4.61921e-16
3.87333e-17
-4.55406e-15
6.574e-17
-6.49603e-15
2.50085e-17
-2.29343e-15
7.16395e-18
-1.45866e-16
6.10399e-18
-9.02285e-18
6.40361e-18
-3.41628e-18
3.02005e-16
-1.26359e-14
9.31006e-07
-8.27268e-14
8.73849e-06
8.58149e-10
2.87482e-05
1.28111e-08
6.25967e-05
3.36561e-08
8.07358e-07
9.97238e-05
8.34909e-23
1.91481e-22
-6.57142e-25
1.95545e-22
-4.88819e-23
6.92249e-23
-2.71495e-23
-1.37315e-23
1.41276e-22
-5.34294e-22
2.6733e-21
-8.63094e-21
9.10603e-20
-2.69818e-19
2.39019e-18
-6.07144e-18
3.45644e-16
-7.95378e-16
5.01519e-16
-1.12562e-15
1.18072e-15
-1.39965e-15
1.27793e-14
-1.00161e-14
1.586e-14
-1.82753e-14
2.94361e-15
-1.96789e-15
1.21523e-16
1.15495e-15
1.52615e-17
9.48891e-17
2.1131e-17
6.88399e-18
8.42399e-14
-4.62834e-17
1.33414e-15
-2.05536e-17
8.58677e-10
-5.26536e-13
1.43923e-08
-1.76777e-11
4.90488e-08
-3.72869e-10
-3.39026e-09
1.73082e-06
2.65136e-23
4.44603e-23
2.25838e-26
5.67104e-23
-1.59388e-23
1.69038e-23
3.66626e-23
-1.35255e-22
1.34476e-21
-2.79434e-21
3.38005e-20
-6.13944e-20
1.89885e-18
-3.26646e-18
5.40182e-17
-7.86629e-17
2.70246e-15
-2.72334e-15
4.37358e-15
-6.27791e-15
5.39887e-15
-5.19839e-15
2.01001e-14
-7.44508e-15
4.43795e-14
-5.88155e-15
3.29394e-14
-4.42267e-14
2.58555e-14
-9.25599e-14
4.59386e-15
-4.4764e-14
5.72103e-16
4.33773e-15
8.07761e-16
-4.49592e-16
6.37812e-16
-5.29394e-17
1.00798e-09
-4.68671e-11
1.85008e-09
-2.99665e-10
1.77264e-09
-4.55192e-10
-2.97571e-10
1.27638e-09
-2.27824e-25
3.79291e-24
-3.91372e-24
4.74448e-24
-3.33569e-24
-7.93994e-24
1.57742e-22
-4.47325e-22
3.17985e-21
-5.48695e-21
1.07011e-19
-1.57427e-19
8.88518e-18
-1.206e-17
2.55267e-16
-2.84977e-16
5.7389e-15
-4.57933e-15
1.10604e-14
-1.40962e-14
1.11822e-14
-1.19379e-14
1.46572e-14
-8.47188e-15
1.38719e-14
-6.87462e-15
1.65436e-12
-8.93013e-13
2.52217e-12
-1.64536e-12
1.79176e-12
-1.94664e-12
1.06806e-13
-4.89065e-13
2.23668e-14
-2.9311e-16
2.41057e-14
-1.9914e-15
4.87786e-09
-6.39639e-11
5.01725e-09
-4.21106e-10
4.98432e-09
-4.0493e-10
-4.14383e-10
5.11909e-09
-8.13806e-26
3.75698e-25
-3.94111e-25
3.89775e-25
3.41508e-24
-1.67027e-23
2.52165e-22
-6.05979e-22
4.04501e-21
-6.78684e-21
1.67152e-19
-2.29249e-19
1.80583e-17
-2.21736e-17
4.929e-16
-4.89511e-16
7.11061e-15
-5.74383e-15
1.61376e-14
-1.86497e-14
1.78541e-14
-1.98956e-14
1.51839e-14
-1.83528e-14
1.51155e-14
-8.53469e-15
4.61389e-12
-1.02211e-12
5.93122e-12
-2.90589e-12
6.47584e-12
-2.43445e-12
1.31412e-12
-1.48742e-12
6.62649e-13
-8.54355e-13
9.14774e-13
-2.55215e-13
1.89264e-09
-1.17717e-12
5.68835e-09
-2.4049e-14
5.30895e-09
-4.80051e-16
-1.07133e-17
4.90973e-09
-1.21937e-26
6.48626e-26
-3.1036e-26
1.88184e-26
4.88958e-24
-1.87218e-23
2.47084e-22
-6.40982e-22
3.79047e-21
-6.70461e-21
1.73039e-19
-2.45287e-19
2.19189e-17
-2.64115e-17
5.61629e-16
-5.45357e-16
6.88866e-15
-5.72609e-15
1.85397e-14
-2.00186e-14
2.43111e-14
-2.5329e-14
4.35544e-14
-7.42225e-14
9.86347e-14
-6.53933e-14
3.54771e-12
-3.55634e-14
5.95969e-12
-1.79188e-12
5.50969e-12
-1.92765e-12
2.10004e-12
-1.66082e-12
1.34893e-12
-3.11621e-13
1.20042e-12
-1.96979e-14
2.4517e-14
-1.2943e-15
4.91349e-16
-2.36938e-17
1.21714e-17
-9.76389e-19
-6.75508e-19
2.03461e-18
-2.14974e-27
1.28335e-26
-1.26609e-27
-2.98604e-26
4.22415e-24
-1.69585e-23
1.92627e-22
-4.54604e-22
2.44067e-21
-3.37002e-21
1.40362e-19
-1.6775e-19
1.98636e-17
-2.34902e-17
4.84379e-16
-4.48695e-16
4.61583e-15
-2.974e-15
1.62796e-14
-1.45948e-14
2.05931e-14
-2.42878e-14
7.16562e-14
-7.21448e-14
7.51723e-14
-7.13835e-14
3.25102e-14
-1.6493e-14
1.31283e-12
-1.3829e-14
1.96034e-12
-1.80596e-16
5.91446e-13
-5.19589e-18
2.10146e-14
-1.7056e-18
1.31843e-15
-9.54393e-19
2.49119e-17
-6.23973e-19
1.97759e-18
-5.78411e-19
2.0957e-18
-4.99664e-19
-6.46527e-19
2.43295e-18
-3.56758e-28
3.71551e-27
3.83206e-27
-2.83652e-26
2.31294e-24
-7.77869e-24
7.79803e-23
-1.60458e-22
7.52218e-22
-1.0104e-21
5.56028e-20
-5.74856e-20
1.05846e-17
-9.42642e-18
2.29036e-16
-2.05093e-16
1.63326e-15
-1.26923e-15
8.38465e-15
-6.31742e-15
1.79922e-14
-9.57481e-15
5.56168e-14
-2.30553e-14
4.82538e-14
-1.54674e-14
1.34451e-14
-5.47254e-15
1.57138e-16
-5.4243e-16
3.08916e-18
-2.64447e-17
1.19542e-18
-3.1794e-18
1.25791e-18
-1.64544e-18
1.37364e-18
-9.47658e-19
1.50087e-18
-6.26466e-19
1.61582e-18
-5.11547e-19
2.11191e-18
-4.10137e-19
-3.50627e-19
3.39707e-18
-7.83206e-29
7.8626e-28
1.92694e-27
-9.21854e-27
6.54222e-25
-2.16728e-24
1.83045e-23
-4.04716e-23
1.60888e-22
-2.47461e-22
1.3757e-20
-1.84358e-20
2.86382e-18
-3.03185e-18
7.48022e-17
-7.53001e-17
5.29154e-16
-4.75811e-16
2.33044e-15
-1.43695e-15
3.99053e-15
-2.79024e-15
7.40969e-15
-2.14518e-15
4.15298e-15
-1.11401e-15
1.2452e-15
-3.37782e-16
9.83794e-17
-4.08596e-17
4.19109e-18
-3.7148e-18
2.40696e-18
-1.35852e-18
1.97466e-18
-6.64072e-19
1.33069e-18
-2.33453e-19
9.25335e-19
-5.65044e-20
7.67955e-19
-1.46943e-20
6.59969e-19
-1.28335e-20
-2.14865e-20
6.90516e-19
-1.12478e-29
9.13368e-29
3.20198e-28
-1.66168e-27
1.21761e-25
-4.34527e-25
3.24681e-24
-8.04834e-24
2.88402e-23
-5.13577e-23
3.42428e-21
-6.47668e-21
7.0292e-19
-9.30053e-19
2.03295e-17
-2.00067e-17
1.38069e-16
-1.31004e-16
4.08978e-16
-2.66887e-16
6.92677e-16
-4.73041e-16
5.10718e-16
-7.99934e-16
2.6724e-16
-5.87457e-16
5.50167e-17
-1.67841e-16
3.37605e-18
-1.0553e-17
8.0275e-19
-1.17946e-19
5.21594e-19
-2.93145e-21
2.7487e-19
-1.64824e-21
8.14303e-20
-1.30354e-21
1.9275e-20
-8.9406e-22
1.3083e-20
-4.65861e-22
1.45417e-20
-1.04196e-21
-2.7894e-20
7.74889e-20
-7.93248e-31
-4.52076e-34
3.55352e-29
-2.24612e-28
1.62582e-26
-6.32488e-26
4.52959e-25
-1.2444e-24
4.37199e-24
-9.16733e-24
9.0913e-22
-2.09147e-21
1.6001e-19
-2.22864e-19
3.93671e-18
-3.78058e-18
2.55767e-17
-1.95031e-17
5.53621e-17
-4.3045e-17
1.14978e-16
-6.64964e-17
1.96076e-16
-5.7618e-17
1.55912e-16
-2.00954e-17
1.86692e-17
-1.87237e-18
2.50251e-19
-4.99169e-20
1.6297e-21
-1.10334e-21
7.45544e-22
-1.71802e-22
7.05708e-22
-7.3093e-23
6.43555e-22
-3.42991e-23
4.47729e-22
-9.23095e-24
3.46664e-22
-1.38281e-23
2.44076e-21
-8.78958e-22
-4.82011e-20
9.59522e-20
2.06831e-36
-5.44635e-35
2.73365e-30
-1.95654e-29
1.54415e-27
-6.53544e-27
4.88584e-26
-1.47685e-25
5.74513e-25
-1.57804e-24
2.10359e-22
-4.7652e-22
2.75199e-20
-3.49954e-20
5.32096e-19
-4.38946e-19
2.83794e-18
-1.69798e-18
6.65668e-18
-3.65188e-18
9.61458e-18
-3.7801e-18
8.16933e-18
-1.76487e-18
1.4998e-18
-2.46799e-19
4.9494e-20
-2.99114e-20
6.85386e-22
-3.82844e-21
6.17485e-23
-2.10218e-22
2.9971e-23
-8.10304e-24
1.85408e-23
-1.61147e-24
8.76663e-24
-3.83892e-25
4.79432e-24
-1.43095e-25
1.35989e-23
-4.34384e-24
2.10472e-21
-9.48024e-22
-6.27013e-20
1.2293e-19
5.44291e-38
-1.48304e-37
1.33143e-31
-9.51175e-31
1.02011e-28
-4.61603e-28
4.05628e-27
-1.37571e-26
7.43524e-26
-3.05531e-25
3.32992e-23
-6.24299e-23
3.07829e-21
-3.11041e-21
4.38716e-20
-2.69616e-20
1.82269e-19
-7.65913e-20
3.44883e-19
-1.08246e-19
4.18462e-19
-7.97649e-20
1.18478e-19
-2.33267e-20
9.1315e-21
-5.50567e-21
1.31954e-21
-2.21391e-21
1.59753e-22
-4.31652e-22
5.30549e-24
-2.00563e-23
5.26241e-25
-2.57386e-25
1.91164e-25
-2.54415e-26
6.91478e-26
-3.90463e-27
6.2354e-26
-9.6794e-27
5.43805e-24
-1.94169e-24
1.8195e-21
-8.59314e-22
-6.14179e-20
1.20746e-19
3.89391e-41
-1.82286e-41
3.42812e-33
-1.3582e-32
4.55621e-30
-2.07554e-29
2.65072e-28
-1.04396e-27
1.07314e-26
-5.63327e-26
3.04943e-24
-3.93311e-24
1.95646e-22
-1.20125e-22
1.90735e-21
-6.67202e-22
5.4523e-21
-1.23153e-21
7.71185e-21
-1.37249e-21
5.37599e-21
-9.24944e-22
1.0574e-21
-3.7376e-22
3.62243e-22
-1.43175e-22
1.71338e-22
-6.05776e-23
1.85887e-23
-9.30225e-24
2.48406e-25
-2.57833e-25
6.71864e-27
-2.42541e-27
1.58123e-27
-1.67365e-28
1.22617e-27
-1.63512e-28
6.84391e-27
-3.40608e-27
2.07098e-24
-8.70624e-25
1.16704e-21
-5.85178e-22
-3.96038e-20
8.03203e-20
2.69446e-46
-8.30539e-45
2.61985e-35
-3.90218e-38
1.31837e-31
-5.58317e-31
1.40997e-29
-5.56617e-29
1.40441e-27
-6.06027e-27
1.37448e-25
-1.30066e-25
5.4087e-24
-8.89002e-25
3.20322e-23
-1.98954e-24
5.9807e-23
-1.96217e-24
7.77612e-23
-7.44674e-25
4.82435e-23
-2.02447e-25
1.85269e-23
-3.23768e-26
8.76166e-24
-2.41084e-27
3.66264e-24
-2.12102e-27
2.38495e-25
-1.5111e-27
1.61977e-27
-3.98283e-28
3.70083e-29
-3.82263e-29
3.76487e-29
-3.00689e-30
4.70832e-29
-2.10981e-29
2.62479e-27
-1.5688e-27
7.67772e-25
-4.22289e-25
6.08255e-22
-3.43616e-22
-2.75252e-20
4.1257e-20
1.15833e-48
-8.1553e-45
5.15001e-41
-1.14603e-43
2.44562e-33
-5.9325e-38
5.30979e-31
-3.64498e-32
1.04604e-28
-2.46794e-28
3.28558e-27
-1.22406e-26
2.72542e-26
-1.07953e-25
5.62259e-26
-2.63062e-25
7.45621e-26
-2.99628e-25
1.82956e-26
-1.20998e-25
4.47496e-27
-3.02119e-26
5.02649e-28
-3.32573e-27
1.8268e-28
-9.10709e-29
1.96399e-28
-8.99266e-30
1.3514e-28
-5.59403e-30
1.77946e-29
-2.66977e-30
1.0098e-30
-5.60296e-31
5.72633e-31
-1.45195e-31
1.05025e-29
-8.29612e-30
1.011e-27
-7.01794e-28
2.99748e-25
-1.84598e-25
2.81397e-22
-1.91091e-22
-1.71322e-20
2.3342e-20
4.74021e-48
-5.7864e-45
3.09973e-46
-2.52024e-43
4.18324e-40
-3.26017e-37
2.78138e-34
-3.70614e-33
3.19278e-30
-2.9617e-30
2.4414e-28
-1.49013e-28
2.66696e-27
-1.12879e-27
6.59156e-27
-1.97148e-27
9.09462e-27
-7.00045e-29
2.41902e-27
-2.04044e-30
4.69144e-28
-3.55519e-31
2.58836e-29
-6.8851e-32
7.70773e-31
-3.85946e-32
4.79402e-31
-4.34941e-32
3.98071e-31
-3.76193e-32
1.65566e-31
-1.40645e-32
2.88855e-32
-2.39943e-33
2.33715e-32
-1.49757e-32
3.65757e-30
-2.6466e-30
3.44527e-28
-2.22679e-28
9.8609e-26
-5.65167e-26
1.20237e-22
-9.0022e-23
-7.61778e-21
1.07541e-20
4.58028e-48
-2.98526e-54
9.56453e-46
-5.07463e-44
2.81099e-39
-5.31261e-37
2.39687e-35
-1.07653e-34
3.00202e-32
-2.21272e-33
2.21083e-30
-8.86545e-33
1.86317e-29
-1.36246e-32
3.26108e-29
-1.38255e-32
9.73247e-32
-6.72827e-33
1.15129e-32
-1.26949e-33
4.08958e-33
-1.61403e-34
1.90578e-33
-3.69105e-35
2.17684e-33
-3.03677e-35
2.94307e-33
-2.98222e-35
2.59303e-33
-1.57767e-35
5.69169e-34
-4.57047e-36
2.53623e-34
-1.31834e-35
3.67037e-33
-2.01816e-33
8.39313e-31
-4.18415e-31
7.76426e-29
-3.73952e-29
2.19493e-26
-1.29268e-26
4.09459e-23
-3.14277e-23
-2.59703e-21
3.38926e-21
2.79595e-57
-1.02763e-61
1.40416e-46
-3.36086e-52
3.8689e-39
-1.52294e-43
5.8386e-37
-2.46012e-40
1.61109e-35
-7.2091e-39
7.3855e-35
-3.55893e-38
1.26927e-34
-6.30941e-38
1.78041e-34
-6.90656e-38
6.31136e-35
-4.60356e-38
7.89607e-36
-1.72425e-38
1.42695e-36
-1.28566e-38
1.09833e-36
-2.58101e-38
1.29905e-36
-3.61188e-38
1.51885e-36
-3.25746e-38
5.79941e-37
-1.56506e-38
3.24969e-37
-8.52856e-39
1.95045e-36
-2.07763e-36
4.19641e-34
-3.48024e-34
9.30382e-32
-4.36348e-32
9.24274e-30
-5.35063e-30
3.7438e-27
-3.68207e-27
9.94741e-24
-9.42209e-24
-8.62756e-22
8.21604e-22
1.27867e-64
-6.76254e-68
1.12635e-54
-2.15837e-64
6.20925e-46
-5.48008e-54
1.27361e-42
-5.77298e-46
4.62818e-41
-4.63021e-43
2.52131e-40
-1.19161e-41
4.84484e-40
-5.7886e-41
6.78797e-40
-1.0482e-40
4.35964e-40
-1.16506e-40
2.29387e-40
-8.69194e-41
2.80347e-40
-4.50942e-41
8.47857e-40
-4.22943e-41
1.18289e-39
-6.47503e-41
1.13784e-39
-6.77148e-41
4.847e-40
-5.35558e-41
4.63393e-40
-8.10565e-40
2.94533e-37
-6.00489e-37
5.53133e-35
-1.10477e-34
7.44291e-33
-1.44212e-32
9.89102e-31
-1.75885e-30
7.43477e-28
-1.14062e-27
1.9714e-24
-2.96806e-24
-2.63838e-22
1.76112e-22
1.01454e-70
-1.52998e-73
8.62852e-67
-1.60365e-70
2.46755e-56
-1.81032e-65
2.97233e-48
-4.77327e-56
2.84891e-45
-1.06477e-48
8.53131e-44
-2.63997e-46
4.34907e-43
-4.75573e-45
8.13598e-43
-1.99767e-44
1.09681e-42
-3.58542e-44
8.40983e-43
-4.24897e-44
6.41851e-43
-4.47569e-44
7.92602e-43
-5.7482e-44
1.49418e-42
-8.33589e-44
1.78547e-42
-6.09717e-44
1.6223e-42
-1.85659e-44
5.60723e-41
-1.77991e-42
5.19675e-38
-5.20495e-40
1.04742e-35
-1.56895e-37
1.46404e-33
-4.21961e-35
1.84893e-31
-1.21872e-32
1.20834e-28
-6.48509e-29
3.21884e-25
-6.67423e-25
-5.1665e-23
2.53837e-23
2.58746e-76
-2.09667e-81
7.18008e-73
-2.28914e-79
8.72123e-68
-1.30071e-74
2.39642e-58
-4.86073e-70
5.7663e-51
-1.28743e-57
1.59797e-48
-6.58653e-51
3.11642e-47
-5.9018e-49
1.31845e-46
-6.38862e-48
2.43319e-46
-2.0033e-47
3.32367e-46
-3.29797e-47
4.32104e-46
-4.38033e-47
7.35178e-46
-5.96794e-47
1.09227e-45
-7.50927e-47
6.84147e-46
-8.07199e-47
3.30962e-46
-2.51022e-45
1.08251e-43
-1.48941e-42
3.78671e-41
-5.12596e-40
1.17129e-38
-1.84316e-37
3.03524e-36
-6.25516e-35
7.91093e-34
-1.88977e-32
2.20882e-30
-2.05156e-29
1.26231e-26
-4.99546e-26
-9.94532e-24
2.11778e-25
3.80272e-84
-1.05685e-86
1.08853e-81
-6.01408e-85
6.46584e-77
-3.40088e-80
3.8263e-72
-4.03668e-76
5.9003e-60
-5.18081e-72
2.96294e-53
-6.79958e-64
2.64434e-51
-4.82267e-56
2.72092e-50
-3.04142e-53
7.93344e-50
-8.8127e-52
1.33694e-49
-6.47146e-51
1.97303e-49
-2.11097e-50
2.92738e-49
-3.75471e-50
3.61352e-49
-3.67249e-50
3.88146e-49
-7.87145e-49
2.35171e-47
-5.26279e-46
1.50917e-44
-2.60944e-43
2.39758e-42
-1.09073e-40
-9.92537e-40
-5.31187e-38
-1.00894e-36
-3.30072e-35
-7.41348e-34
-2.60386e-32
-6.16842e-30
-2.04841e-29
-1.50393e-26
-2.42569e-26
-5.00601e-24
-3.81194e-24
1.97843e-89
-6.99428e-91
2.91721e-87
-3.06582e-90
1.68534e-82
-2.00635e-85
1.79975e-78
-3.12736e-81
3.8574e-74
-4.74765e-77
2.07575e-66
-8.21272e-73
1.0161e-58
-1.05861e-63
3.94334e-56
-5.56386e-58
4.02936e-55
-1.4415e-55
-3.14943e-54
-2.56186e-54
-3.23847e-53
-8.5625e-54
-6.41931e-53
-9.28212e-54
-1.15618e-52
-1.90925e-52
-1.07071e-50
-2.15882e-49
-1.0129e-47
-1.48552e-46
-7.29404e-45
-9.61286e-44
-4.99934e-42
-6.77628e-41
-3.6896e-39
-5.01395e-38
-3.26948e-36
-3.48515e-35
-4.04967e-33
-2.38827e-32
-9.54472e-30
-1.38711e-29
-1.63864e-26
-8.91342e-27
-1.77752e-24
-4.05558e-24
1.32e-93
-2.38937e-95
1.31507e-92
-6.51827e-95
9.6191e-88
-1.77175e-90
1.25762e-83
-3.16373e-87
1.35468e-79
-4.9447e-84
8.79751e-76
-5.15221e-81
-5.65386e-64
-7.28528e-67
-9.17113e-60
-4.08745e-62
-1.81541e-57
-7.0039e-60
-2.7583e-56
-4.79193e-59
-4.37484e-56
-3.27811e-59
-6.7553e-56
-1.01866e-56
-5.47994e-54
-2.52434e-53
-7.35592e-51
-4.77005e-50
-7.39523e-48
-6.05206e-47
-7.56493e-45
-5.87394e-44
-9.96459e-42
-5.33319e-41
-7.75439e-39
-4.31283e-38
-7.01077e-36
-2.77184e-35
-1.0022e-32
-1.37585e-32
-8.49874e-30
-5.34532e-30
-8.16054e-27
-2.3944e-27
-4.43134e-25
-1.78263e-24
4.58679e-98
-1.23967e-97
2.51796e-97
-3.70045e-98
8.05354e-93
-9.75981e-96
1.11335e-89
-5.21632e-91
9.91876e-87
-9.46042e-88
3.54598e-85
-3.12642e-81
-6.7133e-67
-3.41902e-76
-2.68126e-63
-5.6807e-72
-2.00492e-61
-4.93444e-68
-2.06103e-61
-2.70134e-64
-3.3687e-61
-9.90631e-61
-7.65612e-57
-2.45352e-57
-2.00198e-53
-5.11141e-54
-3.94469e-50
-8.0323e-51
-5.05114e-47
-9.68246e-48
-4.92986e-44
-9.06955e-45
-4.63353e-41
-6.67533e-42
-3.90287e-38
-3.89767e-39
-2.58083e-35
-1.82157e-36
-1.30495e-32
-6.87266e-34
-5.14362e-30
-2.12664e-31
-2.8465e-27
-8.89956e-29
-6.7951e-27
-4.3237e-25
2.54899e-100
-7.62526e-100
9.62466e-101
-4.20801e-99
8.27079e-98
-1.03243e-95
1.60603e-93
-3.22788e-92
9.59159e-91
-1.37401e-88
-1.82302e-81
-1.29978e-81
-2.9652e-76
-4.47773e-77
-5.10136e-72
-5.65806e-73
-4.52162e-68
-3.99042e-69
-2.51131e-64
-1.81701e-65
-9.29722e-61
-5.75586e-62
-2.31127e-57
-1.3271e-58
-4.86209e-54
-2.29269e-55
-7.69835e-51
-3.02985e-52
-9.33554e-48
-3.10828e-49
-8.78726e-45
-2.50369e-46
-6.49402e-42
-1.59916e-43
-3.80527e-39
-8.16791e-41
-1.78409e-36
-3.3627e-38
-6.75161e-34
-1.12478e-35
-2.09866e-31
-3.09466e-33
-8.35411e-29
-1.09287e-30
-1.04677e-28
-4.56676e-27
1.79787e-102
-2.78831e-103
3.62206e-101
-4.90236e-99
7.95919e-98
-2.26267e-96
8.0841e-95
-8.03356e-94
7.05655e-92
-6.48143e-88
-9.10757e-82
-3.88384e-82
-3.51708e-77
-9.53724e-78
-4.6233e-73
-1.02325e-73
-3.34195e-69
-6.39017e-70
-1.55058e-65
-2.61719e-66
-4.98891e-62
-7.51192e-63
-1.16576e-58
-1.57625e-59
-2.03761e-55
-2.48725e-56
-2.7205e-52
-3.01305e-53
-2.81629e-49
-2.84421e-50
-2.28682e-46
-2.11634e-47
-1.47124e-43
-1.25354e-44
-7.56436e-41
-5.95897e-42
-3.13344e-38
-2.29074e-39
-1.05425e-35
-7.1758e-37
-2.91557e-33
-1.84897e-34
-1.15084e-30
-5.53204e-32
-7.77269e-30
-1.22496e-28
7.8185e-106
-5.94097e-106
4.03635e-101
-1.27555e-100
7.85688e-99
-8.34184e-99
1.0587e-96
-4.41213e-96
-4.46631e-88
-2.01515e-88
-3.71379e-82
-1.67418e-83
-9.19441e-78
-3.31353e-79
-9.89257e-74
-3.24224e-75
-6.18808e-70
-1.90888e-71
-2.53768e-66
-7.45842e-68
-7.29224e-63
-2.05237e-64
-1.5319e-59
-4.13942e-61
-2.42007e-56
-6.29033e-58
-2.93514e-53
-7.35218e-55
-2.77409e-50
-6.70981e-52
-2.06686e-47
-4.8374e-49
-1.22597e-44
-2.78213e-46
-5.83707e-42
-1.28668e-43
-2.24786e-39
-4.82002e-41
-7.05581e-37
-1.47335e-38
-1.82561e-34
-3.70804e-36
-7.25113e-32
-1.06317e-33
-1.58018e-31
-1.14249e-29
2.35135e-108
-2.14057e-106
4.06573e-103
-3.44206e-104
1.9197e-101
-7.91158e-103
3.91863e-99
-2.8419e-96
-1.9887e-88
-2.64437e-90
-1.66187e-83
-1.13167e-85
-3.29054e-79
-1.99782e-81
-3.21949e-75
-1.91073e-77
-1.89517e-71
-1.12966e-73
-7.40375e-68
-4.47209e-70
-2.03716e-64
-1.25043e-66
-4.10875e-61
-2.56464e-63
-6.24435e-58
-3.96371e-60
-7.30001e-55
-4.712e-57
-6.66453e-52
-4.37442e-54
-4.80719e-49
-3.20878e-51
-2.76665e-46
-1.87812e-48
-1.28069e-43
-8.84047e-46
-4.80319e-41
-3.37011e-43
-1.47037e-38
-1.04782e-40
-3.71691e-36
-2.67877e-38
-1.51773e-33
-7.43019e-36
-1.28402e-33
-2.41203e-31
8.86774e-109
-4.50208e-107
5.09692e-107
-7.28456e-107
5.09872e-106
-1.96623e-102
-2.66444e-96
-1.7746e-97
-2.63655e-90
-7.76033e-93
-1.12881e-85
-2.23038e-88
-1.99272e-81
-3.67706e-84
-1.90555e-77
-3.60576e-80
-1.12642e-73
-2.25242e-76
-4.45871e-70
-9.5161e-73
-1.24662e-66
-2.84813e-69
-2.55691e-63
-6.2558e-66
-3.9523e-60
-1.03491e-62
-4.69963e-57
-1.31579e-59
-4.36464e-54
-1.30518e-56
-3.20341e-51
-1.02189e-53
-1.87641e-48
-6.3767e-51
-8.84128e-46
-3.19554e-48
-3.37477e-43
-1.29441e-45
-1.05098e-40
-4.26764e-43
-2.6961e-38
-1.15382e-40
-1.08009e-35
-3.30493e-38
-6.38634e-36
-2.428e-33
1.01294e-109
-4.52448e-113
-5.14539e-107
-1.20646e-108
-1.94859e-102
-1.50172e-104
-1.77103e-97
-2.5736e-100
-7.75676e-93
-5.70859e-96
-2.22797e-88
-1.24822e-91
-3.67296e-84
-2.00033e-87
-3.60144e-80
-2.10728e-83
-2.24955e-76
-1.4665e-79
-9.50376e-73
-6.99143e-76
-2.84455e-69
-2.37087e-72
-6.24868e-66
-5.90498e-69
-1.03395e-62
-1.10702e-65