/*--------------------------------*- C++ -*----------------------------------*\
| =========                 |                                                 |
| \\      /  F ield         | OpenFOAM: The Open Source CFD Toolbox           |
|  \\    /   O peration     | Version:  2212                                  |
|   \\  /    A nd           | Website:  www.openfoam.com                      |
|    \\/     M anipulation  |                                                 |
\*---------------------------------------------------------------------------*/
FoamFile
{
    version     2.0;
    format      ascii;
    arch        "LSB;label=32;scalar=64";
    class       volScalarField;
    location    "0.35";
    object      alpha.water;
}
// * * * * * * * * * * * * * * * * * * * * * * * * * * * * * * * * * * * * * //

dimensions      [0 0 0 0 0 0 0];

internalField   nonuniform List<scalar> 
2268
(
1
1
1
1
1
1
1
1
1
1
1
1
1
1
1
1
1
1
1
1
0.997464
0.950018
0.950008
1
1
1
1
1
1
1
1
1
1
1
1
1
1
1
1
1
1
1
1
1
0.964784
0.978247
1
1
1
1
1
1
1
1
1
1
1
1
1
1
1
1
1
1
1
1
1
0.99824
0.999461
1
1
1
1
1
1
1
1
1
1
1
1
1
1
1
1
1
1
1
1
1
0.999998
0.99678
1
1
1
1
1
1
1
1
1
1
1
1
1
1
1
1
1
1
1
1
1
1
0.99678
1
1
1
1
1
1
1
1
1
1
1
1
1
1
1
1
1
1
1
1
1
1
0.996925
1
1
1
1
1
1
1
1
1
1
1
1
1
1
1
1
1
1
1
1
1
1
0.996929
1
1
1
1
1
1
1
1
1
1
1
1
1
1
1
1
1
1
1
1
1
1
0.996937
6.50189e-33
6.11122e-32
1.73956e-29
4.48876e-27
1.27722e-25
2.57252e-25
7.22546e-25
6.29975e-26
2.24766e-27
4.47231e-30
1.48255e-32
4.54772e-35
2.10671e-37
1.10713e-39
8.71804e-41
4.53604e-43
8.77466e-46
6.45557e-49
4.5309e-49
4.26478e-31
1.17308e-28
2.85343e-26
5.15463e-24
9.35413e-23
1.03055e-22
7.44232e-23
1.83387e-23
2.24684e-24
5.16614e-27
4.47225e-30
1.48254e-32
4.54758e-35
2.10657e-37
5.78391e-38
4.67205e-40
5.1909e-43
3.5095e-46
4.5309e-49
2.23365e-28
5.78168e-26
9.79163e-24
1.41844e-21
3.65142e-20
7.28964e-20
4.35113e-20
8.89556e-21
9.3669e-22
2.39841e-24
3.19118e-27
1.16966e-29
3.70739e-32
1.71372e-34
2.04886e-35
1.02665e-37
7.92506e-41
3.31385e-44
6.61201e-47
2.85405e-26
1.69657e-23
3.11991e-21
3.31969e-19
1.36293e-17
2.3341e-17
1.74299e-17
3.91245e-18
2.85403e-19
1.19534e-21
1.15665e-24
4.20617e-27
1.53005e-29
7.16766e-32
4.99979e-33
1.72874e-35
9.50417e-39
1.1854e-41
3.29068e-44
6.32229e-23
3.28322e-20
2.2419e-18
9.06011e-17
1.95177e-15
4.57309e-16
1.35917e-15
3.96061e-16
7.89964e-17
4.47529e-19
2.80239e-22
8.90358e-25
4.20971e-27
2.02012e-29
9.20176e-31
1.72608e-33
2.44516e-36
3.35231e-39
1.18114e-41
1.0508e-20
3.53955e-18
1.41789e-16
1.95953e-16
1.4037e-14
3.97179e-14
1.5585e-14
2.61351e-15
3.86944e-15
8.35368e-17
5.21638e-20
1.69542e-22
8.24844e-25
4.30216e-27
1.42377e-28
2.17388e-31
5.95209e-34
8.82157e-37
3.33307e-39
2.5223e-20
5.61168e-16
1.1049e-13
6.3853e-15
4.59644e-13
3.6719e-12
1.44717e-12
2.49147e-13
2.15157e-14
1.60856e-15
8.14701e-18
3.11119e-20
1.54455e-22
8.24928e-25
1.91143e-26
4.77873e-29
1.46214e-31
2.33042e-34
8.74391e-37
2.53e-20
2.5443e-20
4.91692e-18
-3.26983e-12
8.57129e-11
4.3258e-10
1.02393e-10
1.49771e-11
1.14049e-12
5.02012e-14
1.06717e-15
5.61504e-18
2.84379e-20
1.54458e-22
1.96036e-24
1.01916e-26
3.62775e-29
6.22893e-32
2.30822e-34
1
1
1
1
1
1
1
1
1
1
1
1
1
1
1
1
1
1
1
1
1
1
0.998798
1
1
1
1
1
1
1
1
1
1
1
1
1
1
1
1
1
1
1
1
1
1
1
1
0.999996
0.997767
0.997948
0.999168
0.999992
0.999996
0.999996
0.999997
0.999998
0.999998
0.999999
0.999999
0.999999
1
1
1
1
1
1
1
1
1
0.866113
0.688272
0.517073
0.516182
0.54531
0.597568
0.647933
0.684929
0.713402
0.736286
0.755226
0.773827
0.797663
0.82874
0.857562
0.889139
0.931628
0.983244
1
1
1
1
1
0.101485
0.0275685
-8.06554e-20
-5.80345e-49
-6.17106e-46
9.15413e-20
0.00801662
0.0211077
0.0330692
0.0439895
0.0539287
0.0645307
0.0799464
0.103809
0.126918
0.153548
0.1981
0.296442
0.509237
0.804431
0.998778
1
1
-7.78172e-17
-4.70299e-17
-1.25816e-17
-2.53048e-18
-1.48503e-19
-2.13761e-51
9.15413e-20
2.75659e-18
6.09023e-17
1.03827e-14
2.93776e-14
5.69245e-14
1.97062e-13
8.10487e-14
7.27414e-14
7.24049e-14
7.24183e-14
7.24049e-14
0.00327176
0.0363955
0.124685
0.28564
0.49162
-3.99061e-18
-5.18806e-18
-2.36878e-18
-7.90067e-19
1.23684e-18
2.5222e-17
7.16229e-16
1.62361e-14
3.42581e-12
4.84162e-12
8.93144e-12
9.83721e-11
1.61119e-10
6.57887e-11
3.73542e-12
7.27414e-14
1.54712e-13
7.323e-10
3.05327e-12
7.28164e-12
2.41507e-06
7.80265e-06
0.00586161
-1.47708e-18
-2.03069e-18
-8.77043e-19
1.603e-19
1.61275e-17
3.30743e-16
1.55827e-14
3.78237e-13
2.2614e-11
4.60061e-11
5.07482e-11
1.96894e-10
4.05126e-10
3.09013e-10
2.20584e-10
5.44543e-11
2.83679e-13
2.95643e-12
3.06688e-12
2.41389e-06
9.75287e-06
1.07928e-05
8.77421e-06
-3.81377e-19
-5.18731e-19
-1.74034e-19
2.61078e-18
4.13777e-17
1.09898e-15
7.64365e-14
1.89118e-12
4.54309e-11
1.29223e-10
1.18773e-10
1.26847e-10
1.12066e-10
5.88334e-09
1.98929e-08
1.78043e-08
4.97295e-09
6.48549e-11
3.05292e-12
1.19309e-05
2.57358e-05
2.57375e-05
2.57358e-05
-3.23694e-20
-4.08047e-20
7.27499e-20
4.77941e-18
5.84045e-17
1.87487e-15
1.69317e-13
4.02201e-12
5.87302e-11
1.97419e-10
2.00143e-10
1.2663e-10
1.12042e-10
1.8576e-08
4.64773e-08
4.64773e-08
2.80598e-08
3.79581e-09
4.2399e-12
1.00835e-06
1.96804e-05
2.57257e-05
2.57328e-05
-3.13893e-21
-3.15819e-21
1.45865e-19
5.37223e-18
6.25899e-17
2.19672e-15
2.31674e-13
5.17063e-12
6.2942e-11
2.16093e-10
2.60036e-10
4.25587e-10
1.12066e-10
9.32504e-09
4.28336e-08
4.64773e-08
3.6322e-08
2.46069e-08
7.35462e-09
1.30957e-13
1.10706e-14
8.61346e-15
8.07954e-15
-5.24888e-22
-1.45471e-22
1.50277e-19
5.02462e-18
4.78593e-17
2.07827e-15
2.4428e-13
5.24462e-12
4.72639e-11
1.8928e-10
2.80274e-10
8.66126e-10
8.16471e-10
1.58838e-10
5.86659e-09
1.70997e-08
9.61149e-09
9.00327e-10
7.65043e-15
8.94967e-15
8.88815e-15
9.88678e-15
1.07042e-14
-1.00521e-22
2.23045e-22
1.02773e-19
2.55465e-18
1.81986e-17
9.84118e-16
1.55222e-13
3.0093e-12
1.92476e-11
1.02411e-10
1.89267e-10
7.63551e-10
6.75375e-10
1.58501e-10
1.8378e-14
9.33396e-15
9.09849e-15
9.03356e-15
9.01282e-15
9.01054e-15
8.8902e-15
9.91731e-15
1.37283e-14
-2.83153e-23
1.67738e-22
3.78906e-20
7.71305e-19
4.89856e-18
2.9932e-16
5.06982e-14
1.17661e-12
7.51321e-12
3.61562e-11
5.62173e-11
1.16199e-10
7.84057e-11
3.23068e-11
5.39307e-12
2.22012e-13
3.20274e-14
2.04766e-14
1.26308e-14
7.49098e-15
5.35025e-15
3.93415e-15
3.31639e-15
-5.86826e-24
3.94991e-23
9.53728e-21
1.79654e-19
1.12242e-18
9.33689e-17
1.53374e-14
3.88127e-13
2.52654e-12
7.1552e-12
1.4563e-11
1.12632e-11
6.56325e-12
2.07963e-12
2.27999e-13
1.93024e-14
8.16258e-15
4.01319e-15
1.38636e-15
3.3202e-16
8.72131e-17
8.23655e-17
2.62803e-16
-6.7208e-25
6.70397e-24
1.78468e-21
3.3578e-20
2.20771e-19
3.15731e-17
4.38799e-15
9.26423e-14
6.1165e-13
1.24027e-12
2.20644e-12
4.18242e-12
3.44911e-12
9.68716e-13
5.21914e-14
3.68902e-16
1.12997e-17
8.05838e-18
6.44978e-18
4.45754e-18
2.36667e-18
8.69196e-18
3.03282e-16
3.29915e-30
8.63412e-25
2.45935e-22
4.92817e-21
3.80458e-20
9.43703e-18
9.6075e-16
1.59623e-14
8.13091e-14
1.83852e-13
2.834e-13
2.38675e-13
8.26454e-14
7.68328e-15
1.989e-16
4.4774e-18
7.56993e-19
3.24044e-19
1.50781e-19
3.99629e-20
7.09011e-20
7.05137e-18
4.18985e-16
2.02998e-31
7.18771e-26
2.43258e-23
5.61326e-22
6.48053e-21
1.94977e-18
1.38322e-16
1.70643e-15
6.55949e-15
1.41903e-14
1.46477e-14
6.82724e-15
9.5688e-16
1.19889e-16
1.61619e-17
9.06533e-19
3.03499e-20
6.36336e-21
1.50116e-21
5.73288e-22
2.24949e-20
6.63735e-18
4.47704e-16
5.34461e-34
3.36266e-27
1.65951e-24
5.07193e-23
1.23881e-21
2.34474e-19
1.14376e-17
9.82064e-17
2.7855e-16
3.94169e-16
2.92046e-16
8.59883e-17
2.05825e-17
8.54109e-18
1.68908e-18
7.45452e-20
7.49043e-22
9.01149e-23
1.40633e-23
4.23134e-23
9.37364e-21
4.69258e-18
3.23656e-16
6.55987e-38
4.67529e-29
7.26574e-26
3.74426e-24
2.17172e-22
1.39534e-20
4.18158e-19
2.31627e-18
4.28282e-18
4.79342e-18
3.24788e-18
1.32056e-18
5.09319e-19
2.15581e-19
3.27767e-20
8.47348e-22
6.16539e-24
5.44922e-25
5.9486e-25
1.54584e-23
3.90014e-21
2.7425e-18
1.82822e-16
5.91025e-41
1.33129e-34
1.9042e-27
1.91407e-25
2.17212e-23
4.63787e-22
3.18855e-21
7.18665e-21
7.18341e-21
2.74842e-21
7.42498e-22
1.15653e-22
8.24098e-24
7.17896e-24
5.07558e-24
1.32436e-24
1.24874e-25
9.65991e-27
8.4675e-26
6.73525e-24
1.74542e-21
1.45396e-18
1.16643e-16
5.81345e-41
7.86775e-40
3.96687e-34
1.28208e-28
8.40568e-25
4.27972e-23
3.82664e-22
9.37203e-22
1.07648e-21
4.37045e-22
1.08133e-22
1.15437e-23
2.96809e-25
2.91986e-26
1.81343e-26
8.5307e-27
1.75633e-27
4.73741e-28
3.2877e-26
2.6986e-24
6.76758e-22
7.3478e-19
6.29407e-17
2.73172e-41
1.72988e-39
2.79556e-33
1.31335e-29
9.84083e-27
4.9326e-25
3.72475e-24
6.48545e-24
2.29123e-25
6.59036e-27
1.1544e-27
2.22295e-28
1.23804e-28
1.3832e-28
1.18001e-28
4.32841e-29
7.19687e-30
4.90006e-29
9.12183e-27
7.41695e-25
1.84787e-22
3.0913e-19
2.44603e-17
1.07163e-50
1.82463e-40
3.57814e-33
3.61384e-31
7.27836e-30
2.90082e-29
4.44002e-29
4.48877e-29
2.17621e-29
4.08585e-30
5.15686e-31
1.17076e-31
9.54688e-32
9.24778e-32
4.81014e-32
1.36311e-32
4.21381e-32
6.6258e-30
1.2915e-27
1.13667e-25
4.10534e-23
9.8924e-20
7.82933e-18
3.68199e-58
1.14237e-48
5.085e-40
8.1276e-37
2.3634e-35
1.15964e-34
2.04517e-34
2.22755e-34
1.47719e-34
5.50334e-35
4.06867e-35
8.0821e-35
1.11772e-34
9.92646e-35
4.68371e-35
2.61795e-35
7.26081e-33
1.1995e-30
1.43577e-28
1.712e-26
1.16952e-23
2.87784e-20
2.51171e-18
2.41696e-64
7.33778e-61
1.82838e-50
1.90487e-42
1.51487e-39
3.87098e-38
1.86853e-37
3.36263e-37
3.71345e-37
2.75258e-37
1.41417e-37
1.3106e-37
1.97954e-37
2.03599e-37
1.57942e-37
2.45082e-36
1.9478e-33
3.53423e-31
4.51986e-29
5.30472e-27
3.29801e-24
8.6812e-21
7.2286e-19
5.45176e-70
5.43917e-67
6.047e-62
1.57385e-52
3.47944e-45
8.55859e-43
1.53032e-41
6.38117e-41
1.13639e-40
1.33516e-40
1.3928e-40
1.7677e-40
2.52706e-40
1.8171e-40
5.8621e-41
8.79746e-39
2.86518e-36
8.5353e-34
2.22077e-31
6.13939e-29
2.03645e-25
1.78217e-21
1.37895e-19
7.44569e-78
7.75434e-76
4.33522e-71
2.64358e-66
4.20516e-54
2.13347e-47
1.89638e-45
2.03641e-44
6.33185e-44
1.03286e-43
1.35779e-43
1.82731e-43
2.26611e-43
2.40862e-43
8.69694e-42
7.35972e-39
2.81602e-36
9.9203e-34
3.13424e-31
8.89353e-29
2.97677e-26
1.44845e-22
3.12502e-20
3.73955e-83
2.03455e-81
1.13319e-76
1.33085e-72
3.41092e-68
2.31042e-60
1.54919e-52
9.68822e-50
2.78265e-48
2.02431e-47
6.53464e-47
1.14811e-46
1.10885e-46
2.58363e-45
1.81296e-42
8.84462e-40
3.80701e-37
1.29771e-34
3.0154e-32
4.53548e-30
7.93221e-27
6.53426e-23
1.62855e-20
2.46559e-87
1.0358e-86
6.68441e-82
1.03152e-77
1.5521e-73
2.66242e-69
7.6524e-62
1.76657e-54
4.55355e-52
8.02079e-51
2.65333e-50
2.83542e-50
4.6375e-49
6.32119e-46
3.98788e-43
2.03242e-40
8.28536e-38
1.9495e-35
7.32071e-34
3.82068e-31
4.15212e-28
1.93852e-23
5.24336e-21
8.41312e-92
2.20018e-91
5.90289e-87
1.04437e-83
1.61855e-80
2.19776e-77
3.32618e-65
1.29803e-58
2.21816e-56
1.504e-55
9.34348e-56
1.20009e-55
8.33608e-53
2.09424e-49
3.98063e-46
5.78767e-43
6.50275e-40
5.69818e-37
3.96338e-34
2.16499e-31
1.49147e-28
4.42837e-24
1.20541e-21
4.36156e-94
1.3914e-94
6.55321e-92
1.78097e-87
3.43122e-84
3.75114e-82
1.02798e-76
3.78664e-72
5.28311e-68
4.15476e-64
2.12161e-60
7.57822e-57
1.97729e-53
3.85302e-50
5.73046e-47
6.59068e-44
5.92421e-41
4.19914e-38
2.36755e-35
1.06723e-32
1.3164e-29
2.00433e-25
1.74426e-23
2.66523e-96
2.85562e-95
6.94003e-92
1.11554e-88
5.76449e-85
6.62678e-83
1.79489e-77
4.60749e-73
5.15357e-69
3.36371e-65
1.44605e-61
4.37598e-58
9.70427e-55
1.62101e-51
2.07783e-48
2.07217e-45
1.62562e-42
1.01223e-39
5.04517e-37
2.02165e-34
1.50192e-31
2.35521e-27
2.83734e-25
9.68262e-100
3.32722e-95
8.03325e-93
2.70434e-90
2.4062e-90
3.55664e-83
4.17505e-78
8.63063e-74
8.51758e-70
5.03159e-66
1.97561e-62
5.48199e-59
1.11734e-55
1.7194e-52
2.03601e-49
1.882e-46
1.37357e-43
7.98756e-41
3.73185e-38
1.40627e-35
6.34127e-33
1.01074e-28
2.25189e-26
2.53327e-102
4.33148e-97
2.7899e-95
1.92745e-92
2.99905e-92
2.48645e-84
1.43864e-79
2.5903e-75
2.40261e-71
1.36333e-67
5.17944e-64
1.39419e-60
2.75972e-57
4.12847e-54
4.75868e-51
4.28909e-48
3.05857e-45
1.74159e-42
7.98413e-40
2.95761e-37
1.24137e-34
1.921e-30
4.73317e-28
9.49917e-103
1.16592e-100
3.32298e-99
4.31699e-99
4.3427e-92
2.41649e-86
8.98166e-82
1.48284e-77
1.36027e-73
7.8082e-70
3.02236e-66
8.30601e-63
1.67933e-59
2.56621e-56
3.02202e-53
2.784e-50
2.03048e-47
1.18339e-44
5.55652e-42
2.10947e-39
8.17368e-37
1.23941e-32
4.02065e-30
1.68412e-103
1.03125e-104
7.60503e-103
3.64353e-98
9.89014e-94
6.35978e-89
1.69612e-84
2.66058e-80
2.5219e-76
1.53703e-72
6.37345e-69
1.88112e-65
4.08622e-62
6.70603e-59
8.47645e-56
8.3771e-53
6.55243e-50
4.08204e-47
1.88811e-44
7.03447e-42
2.69824e-39
5.4423e-35
2.13235e-32
1.29256e-111
3.81563e-109
1.03154e-104
1.18404e-100
1.3675e-96
4.40641e-92
9.22345e-88
1.42413e-83
1.45852e-79
9.44085e-76
3.85898e-72
1.16396e-68
2.64959e-65
4.63641e-62
6.32631e-59
6.80525e-56
5.82371e-53
3.99316e-50
2.20661e-47
9.84958e-45
4.86002e-42
1.65288e-37
7.48065e-35
1.34892e-115
3.0936e-112
1.34405e-108
9.08139e-105
5.18349e-101
1.83011e-96
3.19841e-92
4.64748e-88
4.96182e-84
3.78922e-80
2.09423e-76
8.55952e-73
2.64018e-69
6.25435e-66
1.15333e-62
1.67274e-59
1.92422e-56
1.76654e-53
1.30026e-50
7.68375e-48
5.94229e-45
3.55527e-40
1.62307e-37
2.71211e-121
3.5661e-118
1.32384e-114
7.2359e-111
3.96793e-107
1.46511e-102
3.33877e-98
7.20604e-94
1.22046e-89
1.51574e-85
1.37381e-81
9.23078e-78
4.68073e-74
1.821e-70
5.50616e-67
1.30665e-63
2.45184e-60
3.65597e-57
4.34452e-54
4.11455e-51
1.03565e-47
7.70067e-43
1.88758e-40
1.13325e-134
2.47856e-131
4.62927e-128
-3.16724e-123
-1.15218e-120
-7.33252e-111
1.44062e-110
8.6236e-106
4.2777e-101
1.58965e-96
4.3385e-92
8.79174e-88
1.34387e-83
1.57485e-79
1.43236e-75
1.02014e-71
5.72937e-68
2.54582e-64
8.95296e-61
8.38374e-56
1.63961e-49
1.74533e-45
9.11683e-44
9.90511e-149
-1.1688e-147
5.84453e-133
-1.89424e-136
-9.92255e-124
-1.00608e-129
-7.34251e-126
-1.92959e-121
-3.12194e-117
-3.06899e-112
-2.02816e-107
-9.42039e-103
-3.53652e-98
-9.21552e-94
-1.85049e-89
-2.8122e-85
-3.28395e-81
-2.96297e-77
-2.08602e-73
-1.1486e-69
2.88733e-56
8.66297e-51
1.26231e-48
0.996587
0.996587
0.997701
0.997984
0.999998
0.998529
0.9983
0.997782
1
1
0.999694
0.999012
1
1
1
0.999996
1
1
1
1
0.639324
0.732887
0.848984
0.964832
0.0178292
0.0331115
0.0525726
0.0801356
4.06628e-06
5.9253e-08
2.34122e-09
4.37768e-11
2.57375e-05
2.5735e-05
6.18357e-06
2.29836e-09
2.09956e-05
3.46028e-06
-1.38677e-13
4.03338e-15
8.053e-15
8.05043e-15
8.03885e-15
8.05178e-15
1.14177e-14
1.20647e-14
1.33645e-14
1.5205e-14
1.81804e-14
2.20228e-14
2.62182e-14
3.02106e-14
3.35863e-15
3.51358e-15
3.96582e-15
4.7204e-15
6.11397e-16
1.08597e-15
2.03801e-15
3.4941e-15
9.408e-16
1.90977e-15
3.63207e-15
1.32157e-14
1.29714e-15
2.73694e-15
5.393e-15
2.53638e-14
1.39978e-15
3.04888e-15
6.58468e-15
1.95553e-14
1.0958e-15
2.83937e-15
6.88015e-15
2.12549e-14
7.16228e-16
2.41168e-15
6.33848e-15
3.88183e-14
5.38455e-16
2.19958e-15
5.71666e-15
5.64585e-14
3.33777e-16
1.36354e-15
3.41336e-15
1.01171e-14
1.44216e-16
5.43682e-16
1.43373e-15
1.91189e-15
5.46574e-17
2.03339e-16
4.78212e-16
5.7789e-16
2.02722e-17
7.2654e-17
1.27294e-16
4.20502e-16
5.98373e-18
2.16807e-17
4.54614e-17
5.10744e-16
1.36243e-18
8.50466e-18
2.59744e-17
2.70428e-16
5.66884e-19
6.64059e-18
2.21034e-17
2.26944e-17
3.10583e-19
5.11479e-18
2.15355e-17
2.27628e-17
9.25856e-20
2.16377e-18
1.23246e-17
1.22965e-17
1.76703e-20
2.93878e-19
1.53141e-18
2.14572e-18
1.35497e-22
2.98725e-21
3.42225e-20
9.1781e-20
2.52562e-24
1.50677e-22
2.08183e-21
4.56355e-21
2.91359e-25
1.09046e-23
1.01576e-22
1.90095e-22
6.20136e-27
2.07574e-25
1.83998e-24
2.16647e-24
6.03665e-29
2.70521e-27
2.2077e-26
1.61412e-26
3.47452e-31
1.83936e-29
1.54395e-28
1.45628e-28
1.23234e-33
8.85392e-32
8.73565e-31
8.41258e-31
2.35534e-36
2.87327e-34
3.81796e-33
4.27256e-33
1.57185e-39
5.11389e-37
1.06542e-35
1.50958e-35
7.75427e-44
3.80835e-40
1.00812e-38
1.00206e-38
3.80766e-62
0
-4.99078e-57
-1.61722e-42
0.447098
0.000542209
0.000267388
5.5736e-08
1.96775e-08
5.35897e-08
1.03468e-08
1.16431e-09
1.25431e-10
5.43698e-12
-7.47166e-15
1.04e-15
5.61528e-18
2.82976e-20
2.68885e-21
1.3365e-23
1.09445e-26
2.64382e-29
6.22302e-32
0.988528
0.952867
0.817058
0.321598
0.0454881
0.00828188
9.64073e-07
1.18698e-07
1.08165e-08
1.90626e-10
1.25194e-11
-7.55887e-13
1.03628e-15
5.05999e-18
2.81345e-18
4.46618e-20
7.06326e-24
1.34688e-26
2.64368e-29
0.999996
1
0.99845
0.998559
0.986811
0.710532
0.190558
0.0147181
1.86548e-06
7.69097e-08
1.75153e-09
3.94746e-11
-1.85301e-12
-6.35662e-15
-8.8916e-17
3.53918e-18
5.54536e-21
1.65458e-23
3.88359e-26
0.999996
1
1
1
1
1
1
0.762992
0.173222
0.000235146
3.63564e-07
5.76609e-09
9.04466e-11
-3.3103e-11
-7.44049e-14
-2.84861e-16
1.41984e-18
1.23326e-20
3.46174e-23
1
1
1
1
1
1
1
1
0.949819
0.418985
0.0100511
1.25284e-06
1.98491e-08
1.75338e-12
3.04426e-12
-1.04955e-13
-4.12936e-16
6.88863e-18
2.54724e-20
0.996152
0.98994
0.990065
0.998948
0.999999
0.999999
0.999999
1
0.999998
0.975715
0.470743
0.0122327
3.83477e-06
7.71031e-08
-4.29859e-10
1.1634e-11
1.19459e-13
4.72878e-16
1.44385e-17
0.123346
0.166589
0.292822
0.598284
0.797383
0.863811
0.941162
0.996854
0.999997
0.999985
0.951238
0.363898
0.00144289
2.30819e-06
5.03331e-08
8.07975e-10
7.55208e-12
2.27432e-14
2.17985e-15
9.73254e-13
9.55677e-14
7.47025e-14
7.28192e-14
7.17858e-14
7.18398e-14
0.144095
0.599839
0.930427
0.999754
0.999733
0.851019
0.169104
4.21631e-05
1.04095e-06
1.99014e-08
2.09981e-10
9.29522e-13
9.90226e-14
4.56796e-11
1.51918e-12
6.55751e-13
6.75016e-13
6.56543e-13
1.65028e-13
6.38885e-14
6.47301e-14
0.0460083
0.599178
0.995997
0.995962
0.544716
0.0137183
6.09672e-06
7.24142e-08
1.61794e-09
7.3415e-12
2.9378e-12
1.53874e-14
4.25955e-12
4.76463e-12
5.9602e-12
7.03152e-12
6.65495e-12
3.94306e-12
6.45327e-13
0
0.0334184
0.660512
0.990424
0.780293
0.114404
3.08533e-05
5.64452e-07
9.32752e-09
7.73262e-11
2.36603e-11
8.09902e-15
4.78377e-14
1.28772e-13
1.96447e-13
2.37325e-13
2.77197e-13
3.15837e-13
1.54728e-13
-1.6124e-14
-1.99743e-14
0.239766
0.918125
0.864241
0.24261
5.79792e-05
1.19903e-06
1.17559e-08
2.59011e-10
1.46246e-10
2.45773e-14
5.90335e-14
1.31657e-13
2.69418e-13
4.63084e-13
5.38023e-13
5.23444e-13
4.22258e-13
1.40606e-13
-3.9123e-31
0.0500118
0.76362
0.859945
0.388514
0.00096406
1.66299e-06
2.12411e-08
3.82707e-10
3.67253e-10
3.95153e-14
6.59604e-14
1.11746e-13
4.19255e-13
1.68097e-12
2.0913e-12
1.87149e-12
1.25464e-12
3.54292e-13
7.60667e-15
5.0618e-15
0.590299
0.853793
0.374814
0.000501168
3.88959e-07
1.58513e-08
2.87246e-10
2.28843e-10
1.49629e-14
7.04674e-13
9.16568e-13
4.06e-12
1.87716e-11
2.68354e-11
2.31342e-11
1.36421e-11
3.07547e-12
4.87876e-14
5.05199e-15
0.410498
0.774647
0.305505
5.85109e-05
7.39466e-07
-9.39876e-09
1.37943e-10
1.05088e-10
2.4872e-14
7.52921e-12
2.37134e-11
2.50579e-11
6.07828e-11
1.19444e-10
1.17967e-10
8.5366e-11
2.44949e-11
4.53186e-13
6.11742e-15
0.430856
0.516413
0.110534
1.95401e-05
8.72288e-08
-1.36612e-09
-1.83021e-11
7.63149e-11
1.34334e-14
1.2007e-11
3.7981e-10
1.76231e-10
1.26273e-10
2.01165e-10
2.6163e-10
2.2258e-10
8.16478e-11
6.59661e-13
0.002329
0.548658
0.426001
0.0359334
6.86702e-06
9.53895e-08
-2.89664e-10
5.7971e-11
7.10754e-11
4.94332e-14
4.69876e-14
9.90946e-10
3.44169e-09
4.44933e-10
2.19227e-10
3.30985e-10
3.16625e-10
1.21132e-10
1.5531e-12
0.156576
0.580537
0.571204
0.14854
2.55002e-05
1.73816e-07
2.20591e-09
6.53693e-11
5.72836e-11
6.88013e-13
6.12081e-14
5.07962e-12
1.82623e-08
1.84159e-08
6.44969e-09
6.67038e-10
3.14488e-10
8.80609e-11
9.03174e-13
0.200465
0.587542
0.587542
0.323932
0.0023893
7.73627e-07
-2.4235e-08
2.98786e-11
1.84911e-11
2.83039e-12
2.37944e-12
2.72473e-13
7.10939e-09
1.25265e-07
9.86691e-08
9.8894e-09
1.62604e-11
1.62876e-11
7.02281e-13
0.03879
0.409746
0.519414
0.216353
8.05949e-05
3.01716e-07
1.26824e-09
-1.6744e-10
5.52845e-12
4.52947e-12
4.26722e-12
2.37584e-13
2.72473e-13
2.12092e-07
1.8603e-07
1.31645e-08
9.81423e-12
7.71635e-12
6.05747e-13
7.02241e-13
0.0233758
0.0504564
0.0386416
0.00438582
6.98424e-08
4.01787e-10
2.48045e-10
5.04803e-12
4.52328e-12
3.85156e-12
1.85918e-13
1.02708e-07
3.05072e-07
2.01161e-07
6.59952e-09
5.20148e-12
7.52463e-12
5.77098e-13
6.05747e-13
6.70008e-11
1.33324e-06
5.22479e-05
0.00146334
6.74254e-07
9.01612e-11
1.08634e-10
2.95199e-12
2.75978e-12
1.80097e-12
1.75911e-13
3.28424e-07
7.63378e-07
3.09975e-07
2.74653e-11
1.03107e-12
5.96735e-13
5.65384e-13
1.41169e-08
1.57083e-06
1.38613e-06
1.18735e-07
1.24949e-07
9.75034e-08
2.38496e-11
2.91955e-11
1.30925e-12
2.55291e-13
6.9246e-13
1.74545e-13
7.76343e-08
1.43803e-06
6.44239e-07
6.76946e-11
3.46654e-12
5.79334e-13
5.65384e-13
5.79334e-13
1.51708e-09
1.37169e-06
5.93922e-08
9.68945e-09
7.33614e-10
5.40912e-12
1.01111e-11
4.85011e-13
1.20916e-14
4.5869e-13
1.74565e-13
1.7456e-13
2.49922e-06
1.11876e-06
2.21207e-10
6.76946e-11
0.0287687
0.175587
0.0526465
5.86604e-09
3.8404e-08
6.38995e-08
5.3772e-10
3.08306e-12
1.39329e-12
3.39626e-12
1.5093e-13
1.11973e-14
1.92916e-13
1.7455e-13
3.78367e-08
2.50072e-06
1.78487e-06
1.97279e-08
2.21211e-10
0.182044
0.25449
0.225666
0.0213065
1.13128e-06
-6.12596e-09
-3.86198e-10
6.8624e-13
1.19596e-12
1.11636e-12
4.04107e-14
1.6919e-14
9.44857e-14
8.7564e-13
9.79918e-13
2.4962e-06
1.82746e-06
4.2772e-08
5.76437e-10
0.234119
0.254795
0.255043
0.110099
3.72687e-05
1.05804e-08
-1.03938e-09
1.5997e-13
9.3062e-13
3.93062e-13
9.43563e-15
2.76956e-14
3.48431e-13
1.28335e-11
1.10888e-12
1.71454e-07
3.36417e-06
2.41052e-07
1.13158e-09
0.164789
0.255037
0.255037
0.20118
0.0066703
7.86453e-08
-4.68372e-10
-9.59308e-14
8.40955e-13
1.43032e-13
1.96171e-15
3.11373e-14
3.32812e-13
3.57943e-11
4.63442e-10
4.65492e-10
1.34671e-06
8.68038e-06
2.71443e-09
0.0450923
0.255037
0.255037
0.155158
0.00264307
6.54127e-09
-1.19765e-10
6.57629e-15
7.13778e-13
4.71106e-14
3.64719e-16
3.78747e-14
2.1418e-13
2.16835e-11
6.24471e-10
2.18768e-09
4.98868e-08
1.8375e-06
8.00175e-08
1.01571e-07
0.0959022
0.123691
0.0305262
0.00016483
-1.24282e-09
6.63078e-15
9.48559e-15
4.66062e-13
1.23614e-14
5.79596e-17
4.61843e-14
2.54713e-13
6.13882e-13
6.20939e-13
1.25003e-12
5.23472e-11
7.989e-07
4.67077e-06
3.77283e-06
4.0793e-06
6.46743e-05
1.05444e-05
2.94868e-05
3.10056e-11
-2.94751e-12
6.76492e-15
1.83294e-13
2.39651e-15
7.35573e-18
1.03687e-14
1.4473e-13
7.38284e-13
1.4274e-12
1.46447e-12
2.85861e-12
8.13993e-11
4.69562e-07
3.78794e-06
1.16231e-07
5.01214e-07
3.4538e-07
2.87314e-09
2.19147e-12
4.7465e-15
6.10005e-15
3.57561e-14
3.4362e-16
7.22075e-19
2.02016e-16
2.5153e-14
4.10431e-13
1.74354e-12
3.28065e-12
4.05766e-12
2.01183e-09
5.33336e-08
1.41289e-07
2.04262e-09
9.85926e-09
1.35267e-08
1.76522e-10
-7.78372e-13
4.45656e-15
6.08885e-15
3.35309e-15
3.90743e-17
5.62362e-20
1.82954e-18
1.06187e-15
5.00755e-14
6.23103e-13
3.89046e-12
9.85713e-12
8.8903e-12
8.45673e-12
7.68203e-12
-3.47216e-11
3.52528e-10
4.70994e-10
1.15218e-11
1.12048e-14
2.86374e-15
5.75569e-15
2.12446e-16
3.82162e-18
3.6435e-21
1.83133e-20
2.7272e-17
2.85796e-15
7.93552e-14
8.79124e-13
4.05811e-12
7.96214e-12
8.7936e-12
4.23308e-12
5.52857e-12
1.46065e-11
2.51649e-11
8.31982e-13
2.58192e-15
1.98511e-15
4.7385e-15
1.41374e-17
3.33823e-19
2.02965e-22
2.95826e-22
1.6037e-19
5.26483e-17
5.0398e-15
1.26083e-13
9.01886e-13
2.48142e-12
3.70356e-12
4.18703e-12
5.19513e-12
1.06754e-12
1.34894e-12
3.98324e-14
5.63074e-15
1.02357e-15
2.15636e-15
9.7844e-19
2.60332e-20
9.94111e-24
2.34755e-24
1.44741e-21
5.31096e-19
8.87147e-17
4.4699e-15
6.24132e-14
3.27292e-13
8.55623e-13
1.27741e-12
1.27598e-12
6.42961e-13
4.57066e-13
7.44661e-14
1.77601e-15
2.6558e-16
3.38867e-16
6.31165e-20
1.80231e-21
4.39997e-25
1.73595e-26
1.42427e-23
4.08628e-21
6.93216e-19
5.40677e-17
1.47938e-15
1.5146e-14
6.6322e-14
1.30523e-13
1.41268e-13
1.39783e-13
5.86082e-14
1.92506e-14
1.50772e-16
2.79056e-17
1.53379e-17
3.67665e-21
1.10834e-22
1.80574e-26
1.22127e-28
1.21406e-25
3.45643e-23
6.21421e-21
5.92676e-19
2.2405e-17
3.20765e-16
1.91449e-15
5.27691e-15
8.32499e-15
1.02857e-14
2.69833e-15
7.37241e-16
5.21351e-18
1.23826e-18
4.11391e-19
1.94433e-22
6.10859e-24
7.02682e-28
7.36758e-31
8.523e-28
2.71047e-25
5.69117e-23
7.20194e-21
3.48326e-19
6.00518e-18
4.11844e-17
1.36366e-16
2.66792e-16
3.28086e-16
8.17689e-17
1.23404e-17
1.46954e-19
3.96072e-20
1.50886e-20
9.40924e-24
3.05333e-25
2.62886e-29
3.41841e-33
4.7047e-30
1.88649e-27
4.8324e-25
8.14044e-23
5.43681e-21
1.19135e-19
9.4917e-19
3.44595e-18
6.94609e-18
8.15508e-18
2.59319e-18
3.48803e-19
5.28104e-21
1.43135e-21
6.20406e-22
4.2028e-25
1.40213e-26
9.37893e-31
5.53956e-36
1.77708e-32
1.08843e-29
3.61082e-27
7.84412e-25
7.82618e-23
2.29942e-21
2.23908e-20
9.25973e-20
1.99155e-19
2.39774e-19
9.28035e-20
1.24435e-20
1.99315e-22
5.27042e-23
2.42418e-23
1.75761e-26
6.014e-28
2.1467e-32
-1.33519e-42
1.41207e-37
2.52247e-32
1.56585e-29
3.81835e-27
6.88346e-25
2.61292e-23
3.02545e-22
1.4833e-21
4.03379e-21
7.0745e-21
1.59585e-21
1.82978e-22
7.86506e-24
3.41587e-24
4.3511e-25
3.51585e-28
1.26182e-29
2.07162e-32
)
;

boundaryField
{
    leftWall
    {
        type            zeroGradient;
    }
    rightWall
    {
        type            zeroGradient;
    }
    lowerWall
    {
        type            zeroGradient;
    }
    atmosphere
    {
        type            inletOutlet;
        inletValue      uniform 0;
        value           nonuniform List<scalar> 
46
(
0
0
0
0
0
0
0
0
0
0
0
0
0
0
0
0
0
0
0
0
0
0
0
0
0
0
0
0
0
0
1.56585e-29
3.81835e-27
6.88346e-25
2.61292e-23
3.02545e-22
1.4833e-21
4.03379e-21
7.0745e-21
1.59585e-21
1.82978e-22
7.86506e-24
3.41587e-24
4.3511e-25
3.51585e-28
1.26182e-29
2.07162e-32
)
;
    }
    defaultFaces
    {
        type            empty;
    }
    porous_half0
    {
        type            cyclic;
    }
    porous_half1
    {
        type            cyclic;
    }
}


// ************************************************************************* //
