/*--------------------------------*- C++ -*----------------------------------*\
| =========                 |                                                 |
| \\      /  F ield         | OpenFOAM: The Open Source CFD Toolbox           |
|  \\    /   O peration     | Version:  2212                                  |
|   \\  /    A nd           | Website:  www.openfoam.com                      |
|    \\/     M anipulation  |                                                 |
\*---------------------------------------------------------------------------*/
FoamFile
{
    version     2.0;
    format      ascii;
    arch        "LSB;label=32;scalar=64";
    class       volScalarField;
    location    "0.35";
    object      epsilon;
}
// * * * * * * * * * * * * * * * * * * * * * * * * * * * * * * * * * * * * * //

dimensions      [0 2 -3 0 0 0 0];

internalField   nonuniform List<scalar> 
2268
(
0.0440493
0.14426
0.287962
0.43772
0.592884
0.740144
0.882956
1.02077
1.15246
1.27617
1.38952
1.48964
1.57303
1.63528
1.6702
1.66563
1.63273
1.55884
1.4324
1.25288
1.01626
0.732536
0.483677
0.0557005
0.0943742
0.154662
0.218065
0.277058
0.332534
0.385693
0.436903
0.48616
0.533145
0.577309
0.617967
0.654352
0.685712
0.711417
0.731249
0.75632
0.787696
0.827471
0.87685
0.907319
0.793124
0.61467
0.0702894
0.0934767
0.139117
0.18367
0.224698
0.262597
0.29823
0.332172
0.364701
0.395831
0.4254
0.453162
0.478887
0.502539
0.524531
0.546404
0.574394
0.614059
0.672335
0.756156
0.847828
0.85973
1.05321
0.0822588
0.101256
0.138514
0.174703
0.207846
0.238171
0.266394
0.293108
0.318663
0.343186
0.36666
0.389021
0.410276
0.430699
0.451141
0.47367
0.503288
0.546179
0.609927
0.701925
0.813096
0.923601
1.56803
0.0970831
0.111589
0.143102
0.173634
0.201593
0.227183
0.251019
0.273633
0.295352
0.316323
0.336587
0.356176
0.375235
0.394221
0.414222
0.437531
0.46872
0.514034
0.581192
0.678019
0.803358
0.995689
2.01782
0.110991
0.122777
0.149907
0.175868
0.199697
0.221719
0.242482
0.262411
0.281754
0.300623
0.319074
0.337193
0.355214
0.373711
0.393912
0.418203
0.450951
0.498396
0.568586
0.670938
0.813811
1.08591
2.48934
0.122696
0.133682
0.157523
0.17958
0.199862
0.218971
0.23741
0.255466
0.273268
0.290868
0.308313
0.325723
0.343388
0.361957
0.382728
0.408113
0.44233
0.491622
0.564577
0.673238
0.838201
1.19688
3.03742
0.132047
0.143947
0.165297
0.18389
0.201046
0.217739
0.234401
0.251141
0.267951
0.284817
0.30177
0.318951
0.33669
0.355675
0.377224
0.403715
0.439213
0.489939
0.565003
0.679282
0.866983
1.31585
3.83004
0.0841818
0.297791
0.455061
0.589755
0.724827
0.800269
0.810971
0.767276
0.693657
0.615502
0.525618
0.434367
0.349923
0.28405
0.231573
0.185014
0.138937
0.0881453
0.030451
0.152438
0.247495
0.276419
0.298979
0.332392
0.35455
0.353593
0.330618
0.289957
0.248971
0.209721
0.17548
0.148134
0.129763
0.116297
0.103365
0.0872909
0.0651524
0.0412093
0.258909
0.257426
0.264367
0.284098
0.318264
0.338403
0.332626
0.303494
0.258386
0.214583
0.175506
0.143854
0.120682
0.105976
0.0967916
0.089231
0.0795622
0.065506
0.0609984
0.361234
0.290582
0.300151
0.333993
0.382611
0.406251
0.39168
0.34716
0.287471
0.23145
0.183353
0.145789
0.119221
0.102717
0.0931816
0.0866465
0.0793164
0.0694604
0.0796776
0.456168
0.345636
0.376965
0.443633
0.515299
0.54188
0.509751
0.438437
0.354352
0.277011
0.212298
0.163026
0.128865
0.107778
0.0957945
0.0884765
0.0818442
0.0745743
0.0976649
0.539453
0.435874
0.520993
0.657676
0.748894
0.76599
0.700202
0.586263
0.464993
0.35413
0.262621
0.194194
0.147575
0.119036
0.102763
0.0932673
0.0861601
0.0803742
0.115445
0.610282
0.607949
0.796165
1.05766
1.13304
1.10244
0.981692
0.808822
0.633752
0.473725
0.341316
0.242853
0.176683
0.13683
0.114095
0.100963
0.0922517
0.0869562
0.133605
0.773949
0.888925
1.24246
1.61417
1.65379
1.52911
1.35238
1.11215
0.872333
0.648982
0.459335
0.315855
0.219488
0.162772
0.130724
0.112171
0.100584
0.0947773
0.153029
0.14191
0.156809
0.175415
0.189859
0.203401
0.217453
0.232271
0.247717
0.263622
0.279904
0.29659
0.313855
0.332072
0.351956
0.374803
0.402874
0.43996
0.492092
0.568635
0.686988
0.889912
1.32703
2.49727
0.150435
0.177299
0.190549
0.19886
0.208574
0.220578
0.2343
0.249151
0.264816
0.281209
0.298404
0.316623
0.336266
0.357992
0.382916
0.412931
0.451122
0.502639
0.575382
0.683344
0.855529
1.16894
1.80334
0.17052
0.210353
0.210329
0.211405
0.218456
0.229409
0.242522
0.257007
0.272632
0.289415
0.3075
0.327147
0.348749
0.372869
0.400368
0.432713
0.472264
0.522802
0.590475
0.684648
0.82127
1.0322
1.35767
0.252478
0.262976
0.240426
0.234352
0.238818
0.247721
0.259023
0.272267
0.287403
0.304486
0.323654
0.345154
0.369343
0.396693
0.427835
0.463837
0.506358
0.557696
0.621845
0.704238
0.812681
0.957271
1.13995
0.460801
0.346152
0.295487
0.278156
0.27597
0.278682
0.285305
0.295775
0.309748
0.326996
0.347511
0.371466
0.399186
0.431126
0.467779
0.509924
0.558672
0.614594
0.67737
0.750519
0.840113
0.948076
1.06714
0.719251
0.452416
0.365931
0.343188
0.323175
0.31535
0.316249
0.323781
0.336863
0.354859
0.377611
0.405255
0.438111
0.476742
0.521573
0.573062
0.632476
0.700202
0.767065
0.832191
0.912676
1.00508
1.09336
0.907182
0.50105
0.434358
0.388245
0.354353
0.339931
0.337925
0.344089
0.356821
0.375588
0.400315
0.431177
0.468407
0.512242
0.562557
0.619182
0.68346
0.758081
0.8397
0.920389
1.01627
1.12418
1.19713
0.905151
0.472991
0.428191
0.384399
0.356935
0.345544
0.345205
0.352409
0.365504
0.383967
0.407866
0.437629
0.473846
0.517139
0.568082
0.627283
0.695669
0.772213
0.852664
0.93519
1.02779
1.13578
1.23169
0.790113
0.418663
0.374059
0.35135
0.339725
0.337675
0.343093
0.354085
0.369588
0.389292
0.413403
0.442478
0.477272
0.518613
0.567375
0.624624
0.691891
0.769894
0.854745
0.936335
1.01388
1.09701
1.1808
0.753574
0.382988
0.331623
0.316757
0.314289
0.319313
0.329836
0.344591
0.362864
0.384465
0.409644
0.438997
0.473358
0.513692
0.561043
0.616539
0.681379
0.755904
0.837246
0.918925
0.999029
1.08296
1.16889
0.748935
0.365467
0.303732
0.289205
0.290013
0.298493
0.311917
0.328978
0.349032
0.371917
0.397885
0.427548
0.461806
0.501769
0.548682
0.603845
0.66843
0.742746
0.824826
0.910241
0.996423
1.08576
1.17819
0.755221
0.354442
0.284587
0.268144
0.269146
0.278429
0.292659
0.310339
0.330774
0.353786
0.379616
0.408885
0.442552
0.481864
0.528286
0.583394
0.648668
0.724975
0.81174
0.906776
1.0081
1.11529
1.22617
0.762286
0.344814
0.269938
0.251428
0.25138
0.259986
0.273593
0.290557
0.310125
0.332095
0.356698
0.384568
0.416716
0.454507
0.49962
0.553968
0.619564
0.698209
0.791048
0.898356
1.01994
1.15489
1.29829
0.76458
0.334719
0.257385
0.237308
0.235908
0.243198
0.25541
0.270831
0.288678
0.308731
0.331219
0.356786
0.386485
0.421776
0.46452
0.516958
0.581677
0.6615
0.759321
0.878003
1.02028
1.18761
1.37448
0.759304
0.323384
0.24565
0.224652
0.22202
0.227846
0.238369
0.251869
0.267556
0.285206
0.305046
0.327729
0.354331
0.386374
0.425848
0.475247
0.53762
0.616606
0.716431
0.841816
0.997441
1.1858
1.39994
0.745625
0.310721
0.234075
0.212763
0.209184
0.213653
0.22249
0.234009
0.247429
0.262534
0.279549
0.299123
0.322339
0.350741
0.386389
0.431922
0.490679
0.566816
0.665375
0.792129
0.952652
1.14942
1.37426
0.723924
0.296773
0.22231
0.201216
0.197018
0.200353
0.207669
0.217338
0.22861
0.241272
0.255549
0.272077
0.291923
0.316621
0.348238
0.389464
0.443776
0.515613
0.610503
0.734895
0.895071
1.09399
1.32408
0.695151
0.281608
0.210194
0.189775
0.185276
0.187733
0.193761
0.201812
0.211172
0.221642
0.233435
0.247166
0.263867
0.285035
0.312696
0.349525
0.399035
0.465819
0.555757
0.675939
0.833624
1.03306
1.26842
0.660486
0.265326
0.197723
0.178361
0.173832
0.175652
0.180638
0.187335
0.195074
0.203666
0.213314
0.224598
0.238504
0.256465
0.280443
0.313054
0.357796
0.419357
0.503942
0.619367
0.774205
0.974658
1.21731
0.621416
0.248204
0.185048
0.167023
0.162668
0.164055
0.168221
0.173822
0.180234
0.187282
0.195149
0.204378
0.215894
0.231059
0.25175
0.280506
0.320781
0.377334
0.456688
0.567445
0.719719
0.92214
1.17422
0.579855
0.230787
0.172442
0.155905
0.151854
0.152956
0.156489
0.161221
0.16658
0.172399
0.178844
0.18641
0.195959
0.208771
0.226632
0.251994
0.288252
0.340206
0.414661
0.520989
0.670921
0.875823
1.13872
0.537824
0.213721
0.160238
0.145208
0.141511
0.142423
0.145465
0.149516
0.154058
0.158932
0.164281
0.170552
0.178539
0.189436
0.204936
0.227392
0.260127
0.307939
0.377837
0.479857
0.627269
0.834323
1.10821
0.497166
0.197598
0.148765
0.135149
0.131791
0.132557
0.135204
0.138722
0.142639
0.146806
0.15134
0.156641
0.163431
0.172817
0.186393
0.206409
0.236085
0.28017
0.345763
0.443378
0.587595
0.795501
1.07908
0.459425
0.182921
0.138322
0.125939
0.122848
0.12347
0.125779
0.128868
0.132309
0.135957
0.139907
0.144509
0.150413
0.158637
0.170672
0.188651
0.215672
0.256364
0.31779
0.41069
0.5506
0.757139
1.0475
0.425791
0.170081
0.129154
0.117759
0.114824
0.115269
0.117264
0.119992
0.123061
0.126331
0.129873
0.133988
0.139254
0.1466
0.157407
0.173683
0.198372
0.235924
0.293223
0.380965
0.51517
0.717402
1.01001
0.39713
0.159368
0.121447
0.110754
0.107836
0.108046
0.109724
0.112127
0.114892
0.11788
0.121138
0.124919
0.129733
0.136417
0.146239
0.16107
0.183677
0.21827
0.271425
0.353522
0.480536
0.675124
0.964011
0.374045
0.150994
0.115341
0.10503
0.101969
0.101871
0.103208
0.105296
0.107794
0.110557
0.113609
0.11716
0.121649
0.127823
0.136837
0.150415
0.171125
0.202893
0.251874
0.327879
0.446315
0.629887
0.908034
0.356989
0.145123
0.110933
0.100655
0.0972767
0.0967822
0.0977432
0.0995107
0.101753
0.10432
0.107208
0.110585
0.114827
0.120592
0.128917
0.141375
0.160325
0.18938
0.234192
0.303814
0.412623
0.582246
0.841544
0.346403
0.141918
0.108295
0.097666
0.0937775
0.0927923
0.093333
0.0947632
0.0967484
0.0991239
0.101863
0.105092
0.109126
0.114536
0.122246
0.133668
0.150932
0.177281
0.21777
0.280456
0.378171
0.53056
0.764926
0.342863
0.14158
0.107486
0.0960641
0.0914561
0.0898808
0.0899559
0.0910284
0.0927454
0.0949227
0.0975082
0.100588
0.104422
0.109498
0.11662
0.127038
0.142639
0.166278
0.202356
0.257807
0.343635
0.476895
0.682212
0.347237
0.144373
0.108544
0.0958153
0.0902601
0.0879959
0.0875648
0.0882614
0.0896979
0.0916639
0.0940805
0.0969989
0.100625
0.105368
0.111919
0.121361
0.135339
0.156322
0.188056
0.236338
0.310257
0.423928
0.598295
0.360827
0.150621
0.111472
0.0968365
0.0900947
0.0870526
0.0860872
0.0863989
0.0875473
0.0892889
0.0915183
0.094255
0.0976578
0.102064
0.108057
0.116562
0.128986
0.147434
0.175039
0.216537
0.279195
0.374174
0.518212
0.385475
0.160643
0.116196
0.0989756
0.0908161
0.0869322
0.0854265
0.0853603
0.0862221
0.0877305
0.089755
0.0922886
0.0954508
0.0995159
0.104968
0.112585
0.123554
0.139644
0.163444
0.198764
0.251275
0.329476
0.445993
0.423566
0.174613
0.122492
0.101987
0.0922256
0.0874832
0.0854657
0.0850505
0.0856402
0.0869136
0.0887187
0.0910283
0.0939312
0.0976495
0.102581
0.109371
0.119007
0.132957
0.153345
0.183209
0.226918
0.290777
0.383897
0.477884
0.192355
0.129919
0.105511
0.0940698
0.0885281
0.0860741
0.0853655
0.0857125
0.0867571
0.088332
0.0903976
0.0930212
0.0963844
0.100815
0.106841
0.115277
0.127329
0.144726
0.16989
0.206173
0.258202
0.332369
0.551391
0.213105
0.137754
0.109071
0.0960528
0.0898765
0.0871177
0.0861999
0.0863482
0.087178
0.0885157
0.0903177
0.0926389
0.0956315
0.0995678
0.104883
0.112245
0.122636
0.137461
0.158653
0.188797
0.231295
0.290578
0.647247
0.235367
0.144982
0.112102
0.0978642
0.0913475
0.0884739
0.0874566
0.0874616
0.0880966
0.0891939
0.0907134
0.0927048
0.0953004
0.0987311
0.10336
0.109735
0.118663
0.131286
0.149156
0.174298
0.209238
0.257051
0.769571
0.257225
0.150285
0.113979
0.0992224
0.0927975
0.0900476
0.089055
0.0889772
0.0894416
0.0902994
0.0915204
0.0931531
0.095315
0.0982046
0.102128
0.107544
0.115119
0.125796
0.14085
0.161907
0.190906
0.230008
0.924464
0.275994
0.151993
0.114122
0.0999396
0.094153
0.0917851
0.0909375
0.0908335
0.0911531
0.0917784
0.0926928
0.0939429
0.0956316
0.0979273
0.101087
0.105492
0.111702
0.120507
0.13299
0.15053
0.174734
0.207241
1.12151
0.28476
0.148089
0.112136
0.0999991
0.0954397
0.0936816
0.0930699
0.0929823
0.0931826
0.0935918
0.0942056
0.0950653
0.0962541
0.0979053
0.100222
0.103509
0.108218
0.115005
0.124796
0.138826
0.158595
0.185651
1.38405
0.27134
0.13665
0.108061
0.0996433
0.0967957
0.0957755
0.0954351
0.0953851
0.0954904
0.0957113
0.0960509
0.0965396
0.0972333
0.0982215
0.099641
0.101701
0.104718
0.109174
0.11579
0.125607
0.140052
0.160886
1.77234
0.208305
0.116992
0.102792
0.0994389
0.0984478
0.0981225
0.0980191
0.0980052
0.0980395
0.0981119
0.0982265
0.0983967
0.0986462
0.099012
0.0995518
0.100355
0.101563
0.103397
0.106214
0.110588
0.117434
0.128194
5.60304
4.62128
3.66932
2.85222
2.3765
2.49785
2.44301
2.31828
1.56928
1.69062
1.74926
1.75494
1.25895
1.34472
1.41259
1.45704
1.14531
1.20407
1.2578
1.30283
1.14749
1.18791
1.2274
1.26351
1.22968
1.25217
1.27644
1.30144
1.27781
1.30313
1.32664
1.35586
1.23194
1.27072
1.3095
1.35147
1.22284
1.26516
1.30924
1.35762
1.24263
1.2971
1.3564
1.42151
1.30566
1.3753
1.45336
1.53806
1.40065
1.48947
1.58664
1.68707
1.50703
1.61315
1.71532
1.81814
1.55266
1.67456
1.79285
1.91155
1.5369
1.66935
1.80437
1.94329
1.4949
1.63587
1.78326
1.93813
1.44843
1.59774
1.75576
1.92343
1.4087
1.5671
1.73535
1.91397
1.37937
1.54768
1.72607
1.91435
1.35966
1.53832
1.72667
1.92354
1.34633
1.53525
1.73315
1.93775
1.3348
1.53327
1.74022
1.95209
1.31994
1.52666
1.74214
1.96139
1.29659
1.50961
1.73311
1.96049
1.25999
1.47677
1.70767
1.9443
1.20624
1.42378
1.66093
1.90845
1.13049
1.34509
1.58473
1.84219
1.03538
1.24029
1.47497
1.73504
0.925452
1.11321
1.3336
1.58555
0.807914
0.972044
1.1687
1.3999
0.691573
0.828257
0.994188
1.19327
0.584572
0.693628
0.826443
0.987264
0.492237
0.576676
0.678855
0.802247
0.41631
0.480798
0.557822
0.64976
0.355751
0.405036
0.462983
0.531054
0.308146
0.346208
0.390266
0.441167
0.270711
0.300625
0.334745
0.373531
0.240431
0.264573
0.291759
0.322183
0.213345
0.233532
0.256206
0.281374
0.183243
0.200128
0.219686
0.241943
0.140883
0.151277
0.164372
0.18075
1.50747
1.69158
1.79112
1.94913
2.01504
1.9318
1.81286
1.55281
1.25194
0.952715
0.682086
0.464171
0.31127
0.220269
0.168012
0.137286
0.118685
0.110463
0.191258
2.01808
1.75856
1.57798
1.55335
1.63885
1.76721
1.89785
1.91598
1.76833
1.49005
1.14996
0.817237
0.545295
0.36755
0.259538
0.195128
0.156584
0.137746
0.244997
1.68379
1.57582
1.48343
1.4311
1.42314
1.47195
1.57304
1.69963
1.78944
1.75652
1.57374
1.27156
0.931264
0.640177
0.433618
0.30282
0.223963
0.182717
0.322195
1.48738
1.46082
1.41508
1.37535
1.35585
1.36855
1.41858
1.50283
1.60299
1.68409
1.67758
1.56226
1.36194
1.05527
0.740066
0.498647
0.342559
0.256994
0.434806
1.3612
1.38305
1.37891
1.36542
1.35447
1.35653
1.37945
1.42786
1.50006
1.58171
1.64761
1.6564
1.57474
1.44103
1.16932
0.825814
0.546467
0.378681
0.597967
1.31881
1.35885
1.37911
1.3868
1.39009
1.39589
1.40973
1.43663
1.47938
1.53649
1.60047
1.67028
1.70912
1.65072
1.57816
1.28001
0.872468
0.572422
0.830519
1.34736
1.3938
1.42784
1.4521
1.47077
1.4856
1.49876
1.51268
1.53097
1.55819
1.59591
1.65121
1.78314
1.88618
1.86564
1.76896
1.33159
0.862857
1.1541
1.41241
1.47616
1.52875
1.57198
1.60832
1.6303
1.6487
1.66081
1.6539
1.64538
1.64778
1.67321
1.77878
2.11633
2.22285
2.22653
1.87657
1.2556
1.58431
1.4292
1.51904
1.60171
1.6764
1.74989
1.81144
1.85147
1.88661
1.85116
1.79623
1.75279
1.73878
1.80778
2.22799
2.75371
2.68951
2.43128
1.71766
2.11025
1.45079
1.56363
1.67627
1.78255
1.87617
1.94754
2.00987
2.07632
2.0854
1.98396
1.89422
1.83898
1.8781
2.25603
3.43772
3.43531
2.94093
2.16529
2.6771
1.5442
1.68202
1.81028
1.922
2.01573
2.09398
2.16632
2.2223
2.24818
2.17187
2.04632
1.95625
1.97047
2.34718
4.0402
4.36048
3.37549
2.50647
3.19609
1.69267
1.85196
1.98738
2.09339
2.17257
2.23678
2.30158
2.35737
2.40255
2.3408
2.19664
2.07917
2.07955
2.49821
4.63571
5.50921
3.74932
2.67517
3.56537
1.86504
2.0407
2.18319
2.28707
2.35748
2.41304
2.47435
2.52617
2.55435
2.49577
2.3404
2.20075
2.21268
2.76124
5.5024
6.90581
4.08756
2.67807
3.73919
2.00697
2.19928
2.35626
2.46988
2.54598
2.60544
2.66833
2.71183
2.70451
2.63486
2.47639
2.31986
2.37648
3.16155
6.69153
8.56658
4.3905
2.56646
3.74897
2.12494
2.33748
2.51156
2.64202
2.73563
2.81242
2.88948
2.9278
2.89297
2.77397
2.57236
2.42802
2.58809
3.84003
8.75327
11.0098
4.7968
2.43843
3.67974
2.19245
2.43826
2.64275
2.80619
2.93478
3.04364
3.1452
3.17776
3.11615
2.91135
2.66042
2.52271
2.78896
4.57274
10.9408
13.7698
5.57716
2.42262
3.62607
2.21887
2.50317
2.75307
2.97277
3.15857
3.30865
3.4222
3.44
3.36478
3.08343
2.7748
2.61435
2.90837
4.80544
12.483
16.4333
6.69062
2.54926
3.62089
2.22895
2.55133
2.86008
3.16295
3.42882
3.61604
3.70549
3.69899
3.64605
3.35542
2.96275
2.75486
3.0435
4.9753
13.054
16.8996
7.03855
2.58178
3.57824
2.23853
2.59779
2.9795
3.39856
3.77279
3.98765
4.00873
3.96975
4.03059
3.87996
3.38335
3.06216
3.30966
5.3728
14.1975
16.3597
6.34488
2.36649
3.40418
2.25336
2.64838
3.11678
3.6929
4.22155
4.4723
4.39314
4.32193
4.57107
4.73654
4.4945
3.8097
3.83646
5.9502
14.2379
14.5415
5.06991
2.00871
3.11829
2.27324
2.70133
3.26304
4.03675
4.7872
5.09688
4.86988
4.62905
4.90983
5.4383
5.42958
5.06988
4.75242
7.07984
13.8518
11.3286
3.86975
1.72696
2.84844
2.29525
2.75027
3.3946
4.38218
5.41651
5.79074
5.35031
4.79322
4.80628
6.12445
7.3535
6.06333
6.11918
8.76957
12.2574
8.48961
3.06039
1.52298
2.58621
2.31575
2.7887
3.48207
4.64915
5.99267
6.4429
5.82475
5.15547
4.8353
5.56768
8.20578
10.1525
9.95204
11.7866
11.1894
6.54312
2.49387
1.34987
2.32892
2.33145
2.81448
3.50718
4.76002
6.38311
7.00625
6.37049
5.5167
4.84626
4.86528
6.1264
9.79955
14.4753
15.3956
10.6254
5.12218
2.02069
1.17717
2.07998
2.33906
2.83063
3.47502
4.67572
6.4609
7.46064
6.78227
5.71787
4.88866
4.5498
5.0981
7.54573
13.7507
17.6632
9.84906
3.93276
1.59401
1.00449
1.84637
2.33435
2.84126
3.41349
4.42752
6.17208
7.65364
7.0213
5.87376
4.94214
4.40636
4.57376
6.21946
11.2871
16.8373
8.47865
2.9103
1.22414
0.84642
1.63433
2.31139
2.84484
3.35825
4.11977
5.57651
7.30382
7.22572
6.0366
5.01114
4.36655
4.35445
5.59759
9.88437
14.2976
6.66938
2.08856
0.930996
0.717583
1.44663
2.25575
2.82932
3.33281
3.88803
4.857
6.43281
7.31941
6.2608
5.1491
4.45625
4.42359
5.57362
9.94522
11.5051
4.65197
1.49362
0.722421
0.624921
1.28193
2.15361
2.77436
3.3108
3.75518
4.33336
5.3617
6.63119
6.58105
5.50314
4.78482
4.91764
6.17066
10.1296
8.17266
3.16871
1.1181
0.589215
0.565752
1.13612
1.99706
2.65874
3.26654
3.70728
4.03761
4.50972
5.32444
6.13124
5.98792
5.4627
6.1855
7.48725
7.90679
5.29963
2.29336
0.911206
0.513584
0.531564
1.00452
1.7859
2.46075
3.15146
3.69357
3.99142
4.12427
4.30758
4.66937
5.06757
5.27112
5.87441
6.02152
5.18387
3.68153
1.83923
0.811055
0.477054
0.512693
0.883852
1.53322
2.17261
2.90738
3.59063
4.05404
4.21595
4.15601
4.05727
4.08228
4.24367
4.41375
4.31952
3.85958
2.9407
1.58949
0.763218
0.464344
0.501009
0.773117
1.26643
1.81834
2.51441
3.26829
3.93099
4.35239
4.47391
4.36823
4.18839
4.05752
3.97641
3.80599
3.37394
2.51164
1.40551
0.731641
0.46368
0.490295
0.67335
1.01792
1.45276
2.03175
2.72447
3.44264
4.05448
4.4412
4.55404
4.4416
4.22128
3.95234
3.57865
2.98239
2.11526
1.23112
0.698042
0.465057
0.475423
0.586399
0.810138
1.13076
1.56361
2.10525
2.71621
3.31365
3.7906
4.05195
4.09276
3.92313
3.59043
3.10687
2.463
1.71286
1.05515
0.653534
0.459311
0.452019
0.5134
0.648966
0.878326
1.18286
1.56435
2.00554
2.4616
2.85937
3.15657
3.26787
3.16813
2.88
2.44094
1.89875
1.33766
0.88148
0.594124
0.439496
0.417623
0.453889
0.528605
0.692744
0.903839
1.16165
1.45483
1.7591
2.04661
2.27451
2.37498
2.31757
2.10877
1.78327
1.39551
1.01685
0.717453
0.521052
0.403526
0.373434
0.406148
0.439601
0.558927
0.707205
0.882565
1.07471
1.26769
1.45423
1.59617
1.65702
1.61554
1.4734
1.25502
1.00137
0.760403
0.570447
0.440521
0.355082
0.324197
0.36808
0.373541
0.46212
0.568161
0.689594
0.816917
0.941441
1.05357
1.13215
1.15814
1.12066
1.02201
0.878552
0.716777
0.565632
0.445851
0.361172
0.301723
0.276114
0.337885
0.323689
0.392606
0.470166
0.553242
0.637448
0.716499
0.782287
0.823303
0.829061
0.794583
0.723096
0.626034
0.520193
0.422726
0.345211
0.2896
0.249949
0.233161
0.314018
0.280512
0.342269
0.405851
0.458594
0.511241
0.555265
0.590761
0.610766
0.607978
0.579322
0.527444
0.460203
0.388477
0.322912
0.270652
0.23337
0.20792
0.199807
0.295667
0.213213
0.275619
0.349558
0.387176
0.417704
0.442904
0.462333
0.47068
0.462958
0.437614
0.397181
0.347475
0.295877
0.249262
0.212257
0.186407
0.170749
0.171574
0.280858
)
;

boundaryField
{
    leftWall
    {
        type            epsilonWallFunction;
        blending        stepwise;
        value           nonuniform List<scalar> 
50
(
0.0440493
0.0557005
0.0702894
0.0822588
0.0970831
0.110991
0.122696
0.132047
0.14191
0.150435
0.17052
0.252478
0.460801
0.719251
0.907182
0.905151
0.790113
0.753574
0.748935
0.755221
0.762286
0.76458
0.759304
0.745625
0.723924
0.695151
0.660486
0.621416
0.579855
0.537824
0.497166
0.459425
0.425791
0.39713
0.374045
0.356989
0.346403
0.342863
0.347237
0.360827
0.385475
0.423566
0.477884
0.551391
0.647247
0.769571
0.924464
1.12151
1.38405
1.77234
)
;
    }
    rightWall
    {
        type            epsilonWallFunction;
        blending        stepwise;
        value           nonuniform List<scalar> 
50
(
0.030451
0.0412093
0.0609984
0.0796776
0.0976649
0.115445
0.133605
0.153029
0.191258
0.244997
0.322195
0.434806
0.597967
0.830519
1.1541
1.58431
2.11025
2.6771
3.19609
3.56537
3.73919
3.74897
3.67974
3.62607
3.62089
3.57824
3.40418
3.11829
2.84844
2.58621
2.32892
2.07998
1.84637
1.63433
1.44663
1.28193
1.13612
1.00452
0.883852
0.773117
0.67335
0.586399
0.5134
0.453889
0.406148
0.36808
0.337885
0.314018
0.295667
0.280858
)
;
    }
    lowerWall
    {
        type            epsilonWallFunction;
        blending        stepwise;
        value           nonuniform List<scalar> 
62
(
0.0440493
0.14426
0.287962
0.43772
0.592884
0.740144
0.882956
1.02077
1.15246
1.27617
1.38952
1.48964
1.57303
1.63528
1.6702
1.66563
1.63273
1.55884
1.4324
1.25288
1.01626
0.732536
0.483677
0.483677
0.61467
1.05321
1.56803
2.01782
2.48934
3.03742
3.83004
5.60304
4.62128
3.66932
2.85222
0.0841818
0.152438
0.258909
0.361234
0.456168
0.539453
0.610282
0.773949
0.0841818
0.297791
0.455061
0.589755
0.724827
0.800269
0.810971
0.767276
0.693657
0.615502
0.525618
0.434367
0.349923
0.28405
0.231573
0.185014
0.138937
0.0881453
0.030451
)
;
    }
    atmosphere
    {
        type            inletOutlet;
        inletValue      uniform 0.1;
        value           nonuniform List<scalar> 
46
(
0.1
0.1
0.1
0.1
0.1
0.1
0.1
0.1
0.1
0.1
0.1
0.1
0.1
0.1
0.1
0.1
0.1
0.1
0.1
0.1
0.1
0.1
0.1
0.1
0.1
0.1
0.1
0.1
0.1
0.1
0.387176
0.417704
0.442904
0.462333
0.47068
0.462958
0.437614
0.397181
0.347475
0.295877
0.249262
0.212257
0.186407
0.170749
0.171574
0.280858
)
;
    }
    defaultFaces
    {
        type            empty;
    }
    porous_half0
    {
        type            cyclic;
    }
    porous_half1
    {
        type            cyclic;
    }
}


// ************************************************************************* //
