/*--------------------------------*- C++ -*----------------------------------*\
| =========                 |                                                 |
| \\      /  F ield         | OpenFOAM: The Open Source CFD Toolbox           |
|  \\    /   O peration     | Version:  2212                                  |
|   \\  /    A nd           | Website:  www.openfoam.com                      |
|    \\/     M anipulation  |                                                 |
\*---------------------------------------------------------------------------*/
FoamFile
{
    version     2.0;
    format      ascii;
    arch        "LSB;label=32;scalar=64";
    class       volScalarField;
    location    "0.35";
    object      k;
}
// * * * * * * * * * * * * * * * * * * * * * * * * * * * * * * * * * * * * * //

dimensions      [0 2 -2 0 0 0 0];

internalField   nonuniform List<scalar> 
2268
(
0.00585179
0.010523
0.016682
0.0220541
0.0269977
0.0312996
0.0352045
0.0387763
0.0420407
0.0449951
0.0476187
0.0498768
0.0517188
0.0530717
0.0538225
0.0537223
0.0530116
0.0513993
0.0485801
0.0444303
0.0386411
0.0310657
0.0235569
0.00919665
0.0221035
0.0346135
0.0458185
0.0552598
0.0635365
0.0709183
0.0775564
0.083532
0.0888751
0.0935819
0.0976287
0.100979
0.10359
0.105411
0.10633
0.105956
0.104308
0.10154
0.098252
0.0929879
0.082263
0.0455492
0.0107395
0.0281108
0.0430164
0.0561237
0.0676077
0.0777585
0.0868221
0.0949693
0.102301
0.108865
0.114671
0.119714
0.123981
0.127467
0.130188
0.132156
0.133248
0.133395
0.13246
0.130386
0.125329
0.113113
0.0652194
0.0119246
0.0324107
0.048414
0.0626472
0.075315
0.0866153
0.0967558
0.105897
0.114141
0.121541
0.128121
0.133891
0.138866
0.143083
0.146621
0.149594
0.152068
0.154059
0.155259
0.154907
0.150379
0.138097
0.0850332
0.0133168
0.0357
0.052509
0.0674042
0.080804
0.0928839
0.10381
0.113714
0.122682
0.130764
0.137991
0.144391
0.150006
0.154912
0.159241
0.163187
0.166939
0.170611
0.173854
0.175516
0.172303
0.160753
0.100605
0.0145602
0.0384836
0.0558217
0.0710821
0.0849351
0.0975702
0.109113
0.119651
0.129245
0.137933
0.145751
0.152743
0.158974
0.164555
0.169663
0.174548
0.179482
0.184672
0.189818
0.193683
0.192699
0.1831
0.115723
0.0155671
0.0408209
0.0585159
0.073974
0.0881239
0.101189
0.113254
0.124356
0.134519
0.143769
0.152145
0.159706
0.166541
0.172787
0.178652
0.184425
0.190438
0.196985
0.203874
0.210033
0.212229
0.206448
0.132139
0.0163484
0.042676
0.0606226
0.0762104
0.0906042
0.104061
0.116613
0.128244
0.138941
0.148722
0.15763
0.165741
0.173164
0.180056
0.186645
0.193237
0.200211
0.207945
0.216365
0.224723
0.230811
0.231507
0.154233
0.00734765
0.0170626
0.022643
0.0269218
0.0308988
0.0330201
0.0333234
0.0321209
0.0300396
0.0277418
0.0249705
0.0219871
0.0190314
0.0165555
0.0144431
0.012432
0.0102686
0.00758049
0.00467545
0.0193024
0.0383898
0.046941
0.0548172
0.0626074
0.0675566
0.0692892
0.0678933
0.0634848
0.05769
0.0511871
0.0446836
0.0387464
0.0336841
0.0294925
0.0257172
0.0216766
0.0164216
0.00807111
0.0274746
0.0532109
0.0635534
0.0730308
0.0824448
0.0886118
0.0904451
0.0881993
0.0823295
0.0747659
0.0663878
0.0580728
0.0505384
0.0441824
0.0389086
0.0341211
0.0289296
0.022118
0.0104852
0.0342986
0.065675
0.0781766
0.0897505
0.100949
0.107908
0.109107
0.105402
0.0979333
0.0887673
0.0788475
0.069101
0.0602875
0.0528516
0.0466385
0.0409381
0.0347331
0.0266496
0.0125315
0.0400594
0.0774166
0.0934773
0.109151
0.122568
0.129888
0.129491
0.123339
0.113709
0.102596
0.0909764
0.0797647
0.069685
0.0611615
0.0539652
0.0472875
0.0400193
0.0306755
0.0143557
0.0447811
0.0899867
0.112466
0.136131
0.15132
0.157772
0.154437
0.144473
0.131713
0.11786
0.103975
0.0909534
0.0794236
0.0697179
0.0614576
0.0537034
0.0452518
0.034522
0.0160525
0.0486116
0.106234
0.139518
0.17539
0.190229
0.193192
0.185824
0.170972
0.153836
0.136076
0.11893
0.103381
0.0899695
0.0788877
0.0694671
0.060542
0.0507685
0.0384416
0.0176992
0.0569793
0.123806
0.172947
0.217969
0.233915
0.232123
0.222316
0.203031
0.181155
0.158575
0.13699
0.117829
0.101769
0.0889782
0.0782843
0.0681055
0.0568837
0.0427055
0.0193816
0.0171531
0.044443
0.062636
0.0784585
0.0933013
0.107411
0.120727
0.133149
0.144632
0.15519
0.164888
0.173832
0.182163
0.190068
0.197796
0.205666
0.214041
0.223358
0.233732
0.244926
0.256127
0.264711
0.221354
0.017834
0.0453441
0.0635125
0.0799482
0.0959181
0.111301
0.125806
0.139275
0.151696
0.163148
0.173757
0.18368
0.193093
0.202194
0.21121
0.22041
0.230048
0.240464
0.251801
0.263864
0.275707
0.285027
0.277395
0.0194003
0.0454637
0.0632805
0.0813358
0.099362
0.116398
0.132058
0.146354
0.159452
0.171561
0.182891
0.193645
0.204023
0.214212
0.224393
0.234766
0.24552
0.256769
0.268708
0.281089
0.29302
0.302927
0.306244
0.0252397
0.0465811
0.0648644
0.0861635
0.106632
0.124843
0.140969
0.155488
0.168817
0.181281
0.193141
0.204625
0.215931
0.227226
0.238638
0.250296
0.262294
0.274568
0.287131
0.299692
0.311623
0.32179
0.328305
0.0377021
0.0538727
0.075271
0.0996618
0.120757
0.138251
0.153482
0.167379
0.180439
0.192976
0.205241
0.217449
0.229778
0.242376
0.255317
0.268664
0.282425
0.296259
0.30937
0.321689
0.333496
0.343991
0.351546
0.0506788
0.0749825
0.100227
0.123719
0.140175
0.154665
0.168102
0.180965
0.193586
0.206191
0.218988
0.232163
0.245856
0.260201
0.275209
0.290815
0.307079
0.323697
0.337916
0.349107
0.360927
0.372183
0.379748
0.0591277
0.104326
0.131449
0.146199
0.157236
0.168819
0.180643
0.19248
0.204503
0.216964
0.230076
0.243994
0.258784
0.274428
0.290742
0.30748
0.324746
0.342862
0.360543
0.375543
0.391371
0.407303
0.414297
0.0589621
0.109284
0.140466
0.1548
0.16618
0.177494
0.188899
0.200308
0.211826
0.223681
0.236129
0.249405
0.263684
0.279053
0.295501
0.31296
0.331383
0.350164
0.367922
0.384038
0.40024
0.417555
0.430452
0.0538621
0.104923
0.135221
0.153887
0.168405
0.181415
0.193746
0.205664
0.217374
0.229134
0.241228
0.253938
0.267503
0.282086
0.297776
0.314641
0.332804
0.352098
0.371196
0.387525
0.401027
0.414032
0.425684
0.0522011
0.0999151
0.129564
0.150126
0.16656
0.180935
0.19418
0.206726
0.21885
0.230817
0.242911
0.25542
0.268611
0.282693
0.297807
0.314045
0.33145
0.349787
0.368012
0.38436
0.398414
0.411573
0.423753
0.0519895
0.0972208
0.125596
0.146288
0.163271
0.178196
0.191878
0.204756
0.217121
0.22923
0.241355
0.25378
0.266784
0.28061
0.295446
0.311402
0.328477
0.346392
0.364294
0.380865
0.395492
0.408924
0.421562
0.0522786
0.0959135
0.122906
0.14289
0.159543
0.174308
0.187886
0.200671
0.212937
0.224926
0.236896
0.249125
0.261898
0.275482
0.290097
0.305882
0.322852
0.340779
0.359057
0.376786
0.393363
0.408861
0.42336
0.052601
0.0952365
0.12085
0.139782
0.155648
0.169797
0.182852
0.195165
0.206987
0.218547
0.230091
0.241894
0.254247
0.267433
0.281701
0.297234
0.314103
0.332211
0.351226
0.370647
0.390052
0.409226
0.427711
0.0527025
0.0945717
0.118903
0.136713
0.151621
0.164927
0.17721
0.188792
0.199907
0.210778
0.221646
0.232788
0.2445
0.257084
0.270819
0.285931
0.302577
0.32081
0.340574
0.361754
0.384292
0.408149
0.43255
0.0524558
0.0935744
0.116748
0.1335
0.147443
0.15984
0.171245
0.181963
0.192221
0.202238
0.212259
0.222566
0.233467
0.245282
0.258319
0.272851
0.289107
0.307269
0.327479
0.349869
0.37457
0.401499
0.42946
0.0518201
0.0920744
0.114221
0.130036
0.143087
0.154606
0.165129
0.174953
0.184302
0.193398
0.202492
0.211876
0.221874
0.232826
0.245064
0.258903
0.274629
0.292507
0.312794
0.335731
0.361466
0.389737
0.419014
0.0508062
0.0900246
0.111261
0.126266
0.138532
0.149254
0.158953
0.167922
0.176386
0.18457
0.192735
0.201184
0.210259
0.220318
0.231722
0.244815
0.259925
0.277373
0.297481
0.320545
0.346709
0.375623
0.405703
0.0494479
0.0874547
0.107869
0.122179
0.133768
0.143793
0.152758
0.160952
0.168601
0.175934
0.183221
0.190778
0.198961
0.20815
0.218729
0.23107
0.245535
0.262489
0.28231
0.305353
0.331812
0.361364
0.392496
0.0477878
0.0844403
0.104091
0.117796
0.128808
0.138234
0.146565
0.154082
0.161011
0.167586
0.17408
0.180819
0.188176
0.196549
0.206345
0.217964
0.2318
0.248266
0.267802
0.290855
0.317728
0.348211
0.380903
0.0458831
0.0810803
0.100001
0.11317
0.123686
0.132605
0.140397
0.147339
0.153653
0.159574
0.165377
0.171396
0.178013
0.185647
0.194726
0.205678
0.218937
0.234964
0.254282
0.277452
0.304936
0.336698
0.371471
0.0438138
0.0774791
0.0956976
0.10838
0.118463
0.12695
0.13429
0.140753
0.146557
0.151932
0.157154
0.162558
0.168537
0.175522
0.183967
0.194329
0.207081
0.222745
0.241928
0.265327
0.293593
0.326909
0.364175
0.0416712
0.0737528
0.0912902
0.103522
0.11322
0.121334
0.128296
0.134364
0.139753
0.144687
0.149437
0.154337
0.159782
0.166219
0.174122
0.183979
0.196306
0.211682
0.230802
0.254503
0.283635
0.318638
0.358645
0.0395456
0.070027
0.0869013
0.0987067
0.108053
0.115838
0.122477
0.128222
0.133279
0.137866
0.142246
0.146747
0.151765
0.157754
0.165209
0.174648
0.186625
0.201774
0.220872
0.24488
0.274849
0.311505
0.354296
0.0375207
0.0664308
0.0826594
0.0940532
0.103066
0.110551
0.116909
0.122383
0.127175
0.131495
0.135596
0.139794
0.144481
0.150116
0.157209
0.166304
0.177993
0.192954
0.212029
0.236283
0.266948
0.305044
0.350436
0.0356698
0.0630876
0.0786914
0.0896807
0.0983673
0.105567
0.111667
0.116908
0.121486
0.1256
0.129492
0.133467
0.137905
0.143266
0.150069
0.15888
0.17032
0.185103
0.204116
0.228497
0.25962
0.298787
0.346362
0.0340545
0.0601102
0.0751172
0.0857042
0.094062
0.100977
0.106829
0.111857
0.116251
0.120202
0.123938
0.127748
0.132001
0.137147
0.143712
0.152278
0.163486
0.178074
0.196953
0.2213
0.25258
0.292327
0.341432
0.0327262
0.0575974
0.0720447
0.082229
0.0902472
0.0968671
0.102468
0.107286
0.111509
0.115319
0.11893
0.122614
0.126721
0.131692
0.138048
0.146383
0.157352
0.171706
0.19036
0.214491
0.245596
0.285356
0.335119
0.0317287
0.0556327
0.0695673
0.0793472
0.0870083
0.0933137
0.0986462
0.103245
0.107294
0.110967
0.114464
0.118038
0.12202
0.126831
0.132987
0.141082
0.151783
0.165847
0.184175
0.207913
0.238531
0.27773
0.327001
0.0311038
0.0542859
0.0677625
0.0771341
0.084415
0.0903781
0.0954165
0.0997736
0.103631
0.107157
0.110534
0.113997
0.117854
0.122503
0.128445
0.136269
0.146643
0.160316
0.178163
0.201267
0.231004
0.269014
0.31689
0.0308977
0.0536146
0.0666907
0.0756461
0.0825179
0.0881046
0.0928152
0.0968998
0.100539
0.103893
0.107131
0.110467
0.114181
0.118646
0.124339
0.131836
0.141797
0.154963
0.172169
0.194417
0.222954
0.259287
0.305009
0.0311664
0.0536667
0.0663946
0.0749179
0.0813453
0.0865164
0.0908609
0.0946366
0.098024
0.101175
0.104245
0.107426
0.110971
0.115221
0.120622
0.127727
0.137186
0.149721
0.166134
0.187339
0.214433
0.248734
0.291713
0.0319811
0.0544818
0.0668971
0.0749592
0.0809001
0.0856133
0.0895517
0.0929809
0.0960797
0.0989918
0.10186
0.104854
0.108198
0.112199
0.117265
0.123919
0.132787
0.144575
0.160053
0.180057
0.205537
0.237594
0.277471
0.0334279
0.0560927
0.0681988
0.0757512
0.0811567
0.0853694
0.0888642
0.0919114
0.0946865
0.0973248
0.0999553
0.102728
0.105839
0.109558
0.114252
0.120403
0.128605
0.139543
0.153959
0.172631
0.19638
0.226098
0.262754
0.0356005
0.0585237
0.0702729
0.077243
0.0820591
0.0857319
0.0887523
0.0913887
0.0938105
0.0961434
0.0985032
0.101021
0.103867
0.107274
0.111566
0.117177
0.124658
0.134664
0.147913
0.165142
0.187078
0.214437
0.247928
0.0385855
0.0617863
0.0730587
0.0793493
0.0835209
0.0866233
0.0891492
0.0913571
0.0934053
0.0954084
0.0974692
0.0997017
0.102252
0.10532
0.109186
0.114232
0.120958
0.129979
0.141983
0.157679
0.17774
0.202756
0.233224
0.0424471
0.0658675
0.0764543
0.0819505
0.0854286
0.0879447
0.0899721
0.0917482
0.0934153
0.0950745
0.0968155
0.0987368
0.100963
0.103666
0.107083
0.111547
0.117501
0.125506
0.136216
0.150319
0.168457
0.191152
0.218754
0.0472302
0.0707134
0.0803138
0.0848963
0.0876493
0.0895839
0.0911279
0.0924864
0.09378
0.095094
0.0965046
0.0980955
0.0999731
0.102282
0.105226
0.109088
0.114254
0.121227
0.130615
0.143082
0.159264
0.179658
0.204533
0.0530005
0.0761928
0.0844515
0.0880181
0.0900407
0.0914238
0.0925211
0.093495
0.0944393
0.0954214
0.0965033
0.0977545
0.099264
0.101153
0.103593
0.106822
0.111172
0.117085
0.125116
0.135903
0.150086
0.168178
0.190439
0.0598831
0.0821436
0.0886536
0.0911391
0.092463
0.0933534
0.0940624
0.094702
0.095337
0.0960159
0.0967856
0.0977009
0.0988333
0.100281
0.102185
0.10474
0.108223
0.113015
0.119612
0.128615
0.14068
0.156382
0.176054
0.0681046
0.088478
0.092672
0.0940872
0.0947933
0.0952786
0.0956761
0.0960459
0.0964246
0.0968427
0.0973321
0.0979322
0.0986957
0.0996966
0.10104
0.102879
0.105431
0.109003
0.114016
0.121018
0.130664
0.143627
0.160428
0.0783443
0.0948421
0.0962296
0.0967035
0.0969388
0.0971319
0.0973061
0.0974781
0.0976618
0.0978724
0.098128
0.0984521
0.0988773
0.0994504
0.100239
0.101344
0.102911
0.105155
0.108386
0.113038
0.119693
0.129067
0.141927
0.0923708
0.0996529
0.0990804
0.0988591
0.0988502
0.0988788
0.0989191
0.0989642
0.0990157
0.0990779
0.0991569
0.0992612
0.0994033
0.0996014
0.0998824
0.100287
0.100875
0.101741
0.103025
0.104945
0.107824
0.112143
0.11859
0.199467
0.175437
0.150455
0.127227
0.260856
0.243827
0.229067
0.217782
0.30167
0.294681
0.285813
0.276158
0.329349
0.328534
0.325997
0.321598
0.354291
0.355432
0.355505
0.354171
0.382301
0.383484
0.384081
0.383707
0.414677
0.414145
0.413596
0.412736
0.434416
0.435082
0.435042
0.435553
0.431567
0.435349
0.438606
0.441817
0.430368
0.434882
0.439129
0.443418
0.429698
0.435989
0.442409
0.448911
0.433133
0.441114
0.449643
0.458137
0.440057
0.449974
0.460159
0.469584
0.448585
0.459978
0.469554
0.477881
0.447777
0.460703
0.47168
0.481183
0.438345
0.45237
0.465216
0.476863
0.426
0.441005
0.455285
0.468729
0.414036
0.430099
0.445689
0.460677
0.404098
0.421408
0.43836
0.4548
0.396749
0.415508
0.433921
0.451791
0.391926
0.412291
0.43225
0.451541
0.389179
0.411244
0.432801
0.4535
0.387817
0.411611
0.434797
0.456913
0.387018
0.412507
0.437355
0.460955
0.385908
0.413
0.439554
0.464783
0.383625
0.412166
0.440475
0.467547
0.379361
0.409146
0.439231
0.468442
0.372134
0.402921
0.434612
0.466124
0.361926
0.393078
0.42578
0.459142
0.348837
0.379529
0.412343
0.446675
0.333302
0.362672
0.394531
0.428589
0.316061
0.343395
0.373291
0.40572
0.297965
0.322845
0.350092
0.379814
0.279734
0.302072
0.326428
0.352934
0.261821
0.281762
0.303352
0.326682
0.244415
0.2622
0.281325
0.301827
0.227522
0.243394
0.260376
0.278461
0.21099
0.225163
0.24029
0.256327
0.194348
0.207013
0.220551
0.234887
0.176445
0.187699
0.199873
0.212871
0.154896
0.164372
0.175008
0.186751
0.125723
0.131341
0.138151
0.146346
0.107608
0.167582
0.197066
0.229601
0.254719
0.26358
0.263971
0.246721
0.221821
0.194227
0.166903
0.142384
0.122186
0.106673
0.093851
0.0816027
0.0679552
0.0504967
0.022504
0.202633
0.194248
0.192552
0.20431
0.224623
0.246184
0.266243
0.275604
0.268878
0.247877
0.218334
0.186943
0.15878
0.137038
0.119434
0.103182
0.0853586
0.0623194
0.026568
0.258554
0.243693
0.233655
0.229248
0.230219
0.23705
0.248994
0.263235
0.273971
0.273868
0.260364
0.235548
0.20593
0.177659
0.153319
0.131523
0.108473
0.0785545
0.0319282
0.310589
0.296513
0.283413
0.272368
0.264097
0.25958
0.259343
0.26325
0.269741
0.275709
0.27458
0.26548
0.251477
0.227421
0.198171
0.169018
0.138772
0.100325
0.0390422
0.349194
0.33987
0.32898
0.317277
0.305841
0.295651
0.287602
0.2825
0.280673
0.281306
0.2826
0.280913
0.274454
0.268633
0.250561
0.218027
0.178475
0.128874
0.0483503
0.38145
0.375882
0.367586
0.357383
0.346135
0.334513
0.323102
0.31264
0.303876
0.297463
0.293712
0.293788
0.295074
0.29242
0.296089
0.275959
0.229607
0.1656
0.060277
0.411055
0.407553
0.401698
0.393804
0.384357
0.373438
0.361304
0.348283
0.3349
0.322385
0.312124
0.306399
0.313314
0.32371
0.328238
0.332194
0.291045
0.211361
0.075173
0.436646
0.436715
0.434179
0.429347
0.422539
0.412514
0.401044
0.388
0.371213
0.353291
0.336858
0.324856
0.325376
0.356722
0.371064
0.382609
0.356005
0.264569
0.0929795
0.44708
0.451905
0.454332
0.454429
0.453331
0.449341
0.441077
0.431566
0.411657
0.388008
0.365351
0.347181
0.341522
0.378575
0.432825
0.43319
0.416845
0.320032
0.112686
0.451032
0.45942
0.466559
0.471773
0.474273
0.472551
0.468551
0.464181
0.451201
0.422281
0.394206
0.370775
0.360593
0.391066
0.506473
0.511422
0.469652
0.368648
0.132145
0.46
0.470932
0.479555
0.485465
0.488684
0.489386
0.488596
0.484468
0.475003
0.45105
0.419643
0.392694
0.379586
0.409037
0.567096
0.600641
0.512057
0.402292
0.148745
0.471897
0.483775
0.491828
0.496272
0.497923
0.498204
0.498495
0.49661
0.491549
0.47134
0.439787
0.411221
0.397514
0.431348
0.62506
0.703507
0.546894
0.416403
0.160012
0.484053
0.495596
0.502554
0.505489
0.505817
0.505891
0.507441
0.507268
0.502266
0.485033
0.454852
0.425929
0.415186
0.462136
0.69999
0.817975
0.576465
0.412941
0.1652
0.491308
0.502542
0.509233
0.511867
0.512234
0.513066
0.515845
0.516237
0.509342
0.493429
0.465751
0.437528
0.433657
0.503297
0.794151
0.941966
0.600519
0.397493
0.165481
0.495827
0.5074
0.514171
0.517226
0.518733
0.521406
0.526175
0.527188
0.519109
0.499944
0.470054
0.445963
0.454669
0.564491
0.939977
1.10805
0.631413
0.380417
0.163364
0.494873
0.508932
0.517558
0.522792
0.527118
0.532858
0.540223
0.541498
0.532081
0.505568
0.472747
0.451961
0.47288
0.625168
1.08122
1.27851
0.690116
0.375002
0.161669
0.490108
0.507793
0.520169
0.529944
0.539106
0.548513
0.557075
0.557547
0.54788
0.515174
0.478513
0.457513
0.482606
0.642812
1.1697
1.42506
0.767854
0.383299
0.161469
0.484979
0.50659
0.524184
0.540878
0.55663
0.568975
0.575362
0.574278
0.567634
0.536039
0.493041
0.468855
0.494041
0.655659
1.20185
1.44511
0.787734
0.3828
0.160236
0.481681
0.507326
0.531496
0.557698
0.581888
0.595938
0.596429
0.593284
0.597976
0.581708
0.531781
0.498144
0.518816
0.685651
1.25989
1.40628
0.729979
0.358697
0.155029
0.481014
0.510774
0.542812
0.581569
0.61713
0.633101
0.625302
0.620267
0.641868
0.654206
0.630491
0.568255
0.568555
0.732592
1.25872
1.29177
0.626795
0.319021
0.146173
0.482902
0.516667
0.5573
0.611586
0.662681
0.681682
0.66182
0.643335
0.667814
0.709722
0.710578
0.682102
0.652439
0.822583
1.23839
1.08403
0.522764
0.281489
0.137551
0.486808
0.524071
0.572602
0.643624
0.713697
0.735341
0.698142
0.653654
0.656507
0.758108
0.845907
0.758757
0.761683
0.944521
1.14711
0.888491
0.447366
0.250623
0.128919
0.49204
0.531912
0.585668
0.67111
0.761314
0.785888
0.73406
0.679823
0.655697
0.717067
0.90948
1.03435
1.02736
1.14374
1.08744
0.747353
0.391157
0.224245
0.120174
0.49794
0.539542
0.594271
0.687655
0.796571
0.830508
0.775936
0.706339
0.652417
0.657751
0.75907
1.01472
1.29139
1.35532
1.05564
0.637594
0.340835
0.199763
0.111409
0.503899
0.54694
0.598194
0.689427
0.811034
0.867901
0.809198
0.722124
0.654176
0.629227
0.67779
0.860419
1.24918
1.47223
1.00321
0.536331
0.291759
0.17653
0.10286
0.509238
0.554397
0.599491
0.67754
0.799923
0.888075
0.831658
0.737296
0.660014
0.617179
0.634724
0.763476
1.09964
1.41544
0.900951
0.438699
0.245435
0.15531
0.0947828
0.513072
0.561817
0.601538
0.65934
0.765042
0.873649
0.853284
0.755633
0.670294
0.616812
0.617843
0.716192
1.00741
1.25941
0.758262
0.351325
0.205446
0.137203
0.0873366
0.513813
0.568195
0.607036
0.646146
0.717255
0.823628
0.867523
0.780309
0.688517
0.629484
0.625955
0.713006
1.00235
1.07758
0.588193
0.282421
0.17474
0.122886
0.0805363
0.509768
0.571568
0.614527
0.642627
0.680461
0.752579
0.832412
0.812496
0.723913
0.661625
0.666906
0.752816
0.999628
0.84461
0.452588
0.236964
0.153915
0.112259
0.0742741
0.499425
0.569297
0.621484
0.649067
0.663107
0.689792
0.743779
0.791426
0.767735
0.719559
0.761983
0.83825
0.839297
0.626638
0.370517
0.213025
0.141592
0.104745
0.0683947
0.481829
0.55828
0.622661
0.661171
0.6706
0.66427
0.664515
0.681106
0.699129
0.701286
0.732843
0.723499
0.633804
0.500829
0.332283
0.20424
0.135534
0.0996785
0.0627785
0.457257
0.536308
0.611188
0.667012
0.692128
0.685656
0.660022
0.633228
0.618708
0.616474
0.61467
0.59063
0.538319
0.45219
0.316723
0.202987
0.133603
0.096441
0.0573972
0.427589
0.503955
0.58278
0.652392
0.700064
0.717583
0.706319
0.67685
0.643549
0.615619
0.593667
0.566272
0.51811
0.430767
0.306685
0.203458
0.134029
0.0944084
0.0523238
0.395747
0.465136
0.540004
0.612774
0.673559
0.713128
0.726942
0.716594
0.688145
0.652244
0.613966
0.567951
0.501713
0.405472
0.293937
0.202443
0.135126
0.0928191
0.0476919
0.364374
0.425001
0.490895
0.557171
0.616992
0.662853
0.688881
0.692122
0.675917
0.6433
0.597684
0.53861
0.462593
0.370295
0.27638
0.198158
0.135096
0.0907359
0.0436219
0.334911
0.387166
0.443091
0.498915
0.549505
0.589192
0.612881
0.620604
0.610215
0.581928
0.537487
0.478657
0.407538
0.329421
0.254441
0.189539
0.132306
0.0872878
0.0401583
0.307642
0.352841
0.400166
0.446212
0.486402
0.516256
0.533431
0.537252
0.525914
0.499658
0.459774
0.408525
0.349439
0.287806
0.229458
0.176458
0.125917
0.0820987
0.0372684
0.282246
0.321698
0.362266
0.400818
0.432833
0.454425
0.465124
0.463272
0.448804
0.422877
0.387247
0.344221
0.296872
0.248888
0.203214
0.159927
0.116277
0.0755014
0.0348815
0.25815
0.292985
0.328295
0.361238
0.387251
0.403483
0.409256
0.403624
0.387114
0.361462
0.328966
0.292037
0.25312
0.214516
0.1776
0.141806
0.104763
0.0683666
0.0329283
0.234232
0.265921
0.29758
0.326096
0.347286
0.359254
0.361865
0.354738
0.338253
0.313984
0.28427
0.251561
0.218009
0.185252
0.154066
0.123889
0.0928241
0.0614665
0.0313424
0.206848
0.237796
0.269238
0.295852
0.313
0.319972
0.319658
0.312071
0.29701
0.27537
0.248995
0.220059
0.190519
0.161808
0.134638
0.108742
0.0826621
0.0558579
0.0300952
0.162147
0.191503
0.229114
0.26777
0.282839
0.28727
0.285387
0.277492
0.263341
0.243582
0.219748
0.193733
0.167277
0.141671
0.11763
0.0951511
0.0732297
0.0508049
0.0290699
)
;

boundaryField
{
    leftWall
    {
        type            kqRWallFunction;
        value           nonuniform List<scalar> 
50
(
0.00585179
0.00919665
0.0107395
0.0119246
0.0133168
0.0145602
0.0155671
0.0163484
0.0171531
0.017834
0.0194003
0.0252397
0.0377021
0.0506788
0.0591277
0.0589621
0.0538621
0.0522011
0.0519895
0.0522786
0.052601
0.0527025
0.0524558
0.0518201
0.0508062
0.0494479
0.0477878
0.0458831
0.0438138
0.0416712
0.0395456
0.0375207
0.0356698
0.0340545
0.0327262
0.0317287
0.0311038
0.0308977
0.0311664
0.0319811
0.0334279
0.0356005
0.0385855
0.0424471
0.0472302
0.0530005
0.0598831
0.0681046
0.0783443
0.0923708
)
;
    }
    rightWall
    {
        type            kqRWallFunction;
        value           nonuniform List<scalar> 
50
(
0.00467545
0.00807111
0.0104852
0.0125315
0.0143557
0.0160525
0.0176992
0.0193816
0.022504
0.026568
0.0319282
0.0390422
0.0483503
0.060277
0.075173
0.0929795
0.112686
0.132145
0.148745
0.160012
0.1652
0.165481
0.163364
0.161669
0.161469
0.160236
0.155029
0.146173
0.137551
0.128919
0.120174
0.111409
0.10286
0.0947828
0.0873366
0.0805363
0.0742741
0.0683947
0.0627785
0.0573972
0.0523238
0.0476919
0.0436219
0.0401583
0.0372684
0.0348815
0.0329283
0.0313424
0.0300952
0.0290699
)
;
    }
    lowerWall
    {
        type            kqRWallFunction;
        value           nonuniform List<scalar> 
62
(
0.00585179
0.010523
0.016682
0.0220541
0.0269977
0.0312996
0.0352045
0.0387763
0.0420407
0.0449951
0.0476187
0.0498768
0.0517188
0.0530717
0.0538225
0.0537223
0.0530116
0.0513993
0.0485801
0.0444303
0.0386411
0.0310657
0.0235569
0.0235569
0.0455492
0.0652194
0.0850332
0.100605
0.115723
0.132139
0.154233
0.199467
0.175437
0.150455
0.127227
0.00734765
0.0193024
0.0274746
0.0342986
0.0400594
0.0447811
0.0486116
0.0569793
0.00734765
0.0170626
0.022643
0.0269218
0.0308988
0.0330201
0.0333234
0.0321209
0.0300396
0.0277418
0.0249705
0.0219871
0.0190314
0.0165555
0.0144431
0.012432
0.0102686
0.00758049
0.00467545
)
;
    }
    atmosphere
    {
        type            inletOutlet;
        inletValue      uniform 0.1;
        value           nonuniform List<scalar> 
46
(
0.1
0.1
0.1
0.1
0.1
0.1
0.1
0.1
0.1
0.1
0.1
0.1
0.1
0.1
0.1
0.1
0.1
0.1
0.1
0.1
0.1
0.1
0.1
0.1
0.1
0.1
0.1
0.1
0.1
0.1
0.26777
0.282839
0.28727
0.285387
0.277492
0.263341
0.243582
0.219748
0.193733
0.167277
0.141671
0.11763
0.0951511
0.0732297
0.0508049
0.0290699
)
;
    }
    defaultFaces
    {
        type            empty;
    }
    porous_half0
    {
        type            cyclic;
    }
    porous_half1
    {
        type            cyclic;
    }
}


// ************************************************************************* //
