/*--------------------------------*- C++ -*----------------------------------*\
| =========                 |                                                 |
| \\      /  F ield         | OpenFOAM: The Open Source CFD Toolbox           |
|  \\    /   O peration     | Version:  2212                                  |
|   \\  /    A nd           | Website:  www.openfoam.com                      |
|    \\/     M anipulation  |                                                 |
\*---------------------------------------------------------------------------*/
FoamFile
{
    version     2.0;
    format      ascii;
    arch        "LSB;label=32;scalar=64";
    class       volScalarField;
    location    "0.35";
    object      nut;
}
// * * * * * * * * * * * * * * * * * * * * * * * * * * * * * * * * * * * * * //

dimensions      [0 2 -1 0 0 0 0];

internalField   nonuniform List<scalar> 
2268
(
6.9965e-05
6.90831e-05
8.69769e-05
0.000100006
0.000110643
0.000119126
0.000126328
0.00013257
0.000138025
0.000142779
0.00014687
0.0001503
0.000153038
0.000155017
0.000156099
0.000155945
0.000154907
0.00015253
0.000148285
0.000141805
0.000132233
0.00011857
0.000103258
0.00013666
0.000465921
0.000697188
0.00086644
0.000991951
0.00109258
0.00117359
0.00123906
0.00129172
0.00133339
0.00136527
0.00138814
0.00140247
0.00140844
0.00140569
0.00139152
0.00133594
0.00124314
0.0011214
0.000990832
0.0008577
0.000767909
0.000303782
0.000147679
0.000760828
0.0011971
0.00154346
0.00183078
0.00207228
0.00227485
0.00244369
0.00258266
0.00269468
0.00278198
0.00284629
0.00288879
0.00290985
0.00290813
0.00287676
0.00278198
0.00260802
0.00234868
0.00202346
0.00166739
0.00133938
0.000363481
0.000155577
0.000933684
0.00152297
0.00202183
0.0024562
0.00283493
0.00316281
0.00344337
0.00367957
0.00387402
0.0040292
0.00414736
0.00423016
0.00427806
0.00428866
0.00425199
0.00413525
0.00391095
0.00355693
0.00307678
0.0025031
0.00185835
0.000415018
0.000164399
0.00102792
0.00173406
0.00235496
0.00291496
0.00341781
0.00386381
0.00425306
0.0045863
0.00486504
0.0050915
0.00526817
0.00539706
0.00547863
0.00550957
0.00547781
0.00535115
0.00509643
0.00468049
0.00408915
0.00332597
0.00233581
0.000451435
0.000171907
0.00108562
0.00187079
0.00258569
0.00325121
0.00386432
0.00441889
0.00491016
0.00533582
0.00569587
0.00599207
0.0062271
0.00640332
0.00652122
0.00657681
0.00655668
0.00642915
0.0061584
0.00570325
0.00503205
0.00410654
0.00277859
0.000484166
0.000177757
0.00112185
0.00195635
0.00274247
0.00349703
0.00420846
0.00486238
0.00544805
0.00595964
0.00639555
0.0067572
0.00704756
0.00726942
0.00742346
0.00750528
0.00750071
0.00737909
0.00710359
0.0066259
0.00589723
0.00483621
0.00320491
0.00051737
0.000182165
0.00113869
0.002001
0.00284258
0.0036749
0.00447587
0.00522131
0.00589383
0.00648409
0.00698918
0.00741044
0.00775138
0.00801543
0.00820363
0.00831145
0.00832434
0.00821378
0.00794326
0.007457
0.00669095
0.00553026
0.00366577
0.000558978
5.77193e-05
8.79875e-05
0.000101401
0.000110606
0.000118547
0.00012262
0.000123235
0.000121022
0.000117081
0.000112533
0.000106764
0.000100166
9.3156e-05
8.68426e-05
8.10732e-05
7.51829e-05
6.83038e-05
5.8673e-05
6.46082e-05
0.000219975
0.000535928
0.000717429
0.000904556
0.00106131
0.00115851
0.001222
0.00125479
0.00125098
0.00120308
0.0011244
0.00102403
0.000912117
0.000786941
0.000673126
0.00057586
0.000484456
0.000372515
0.00014227
0.000262397
0.000989903
0.00137503
0.00168961
0.00192213
0.00208829
0.00221338
0.00230687
0.00236094
0.00234453
0.0022601
0.00210993
0.00190477
0.0016578
0.00140766
0.00117428
0.000946721
0.00067213
0.000162209
0.000293094
0.0013359
0.00183256
0.00217059
0.00239714
0.00257959
0.00273536
0.00288009
0.00300268
0.00306402
0.00305163
0.00294772
0.00274374
0.00244746
0.00210088
0.00174079
0.00136889
0.000920207
0.000177383
0.000316612
0.0015606
0.00208619
0.00241697
0.00262384
0.00280206
0.00296049
0.00312274
0.00328396
0.00341986
0.00350876
0.00351242
0.00339144
0.0031237
0.00273609
0.00227461
0.00176114
0.00113563
0.000189912
0.000334564
0.00167201
0.002185
0.00253598
0.00275178
0.0029247
0.00306566
0.00320422
0.00335779
0.0035303
0.00370486
0.00383394
0.00384706
0.00367496
0.00330792
0.00278302
0.00213898
0.0013345
0.000200888
0.000348492
0.00167073
0.0022004
0.00261762
0.00287444
0.00304696
0.0031657
0.00325266
0.00336079
0.00351788
0.00372964
0.00396079
0.00412324
0.00409335
0.00380656
0.00326735
0.00251453
0.00152949
0.00021102
0.000377541
0.00155189
0.00216665
0.002649
0.00297768
0.00317133
0.00328918
0.00333583
0.00338581
0.00348723
0.003677
0.00395602
0.00424684
0.00437754
0.00421924
0.00372156
0.00289527
0.00173183
0.000220926
0.000186601
0.00113365
0.00201291
0.00291805
0.0038518
0.00477506
0.00564751
0.00644116
0.00714146
0.0077439
0.00825018
0.00866507
0.0089935
0.00923784
0.00939449
0.00944931
0.00937177
0.00912429
0.00864661
0.00785892
0.00663445
0.0047523
0.00176584
0.000190279
0.00104371
0.00190526
0.00289276
0.00396993
0.0050545
0.00607955
0.00700687
0.00782069
0.00851873
0.00910587
0.00959006
0.00997913
0.0102779
0.010485
0.0105883
0.0105581
0.0103535
0.00991751
0.00916985
0.00799654
0.00625496
0.00384028
0.000198648
0.00088435
0.00171349
0.00281638
0.00406742
0.00531522
0.00647177
0.00750073
0.00839311
0.00915291
0.00978994
0.010316
0.0107421
0.0110758
0.0113188
0.0114634
0.0114876
0.0113498
0.0110053
0.0103864
0.00940914
0.00800119
0.00621707
0.000227085
0.000742583
0.00157498
0.00285115
0.00428503
0.00566248
0.00690483
0.00799171
0.00892452
0.00971361
0.0103731
0.0109181
0.0113617
0.011714
0.0119797
0.0121558
0.0122282
0.0121659
0.0119322
0.0114782
0.0107543
0.00973537
0.00850966
0.000277627
0.000754594
0.00172568
0.00321375
0.00475558
0.00617261
0.00743097
0.00852477
0.00946006
0.0102496
0.0109095
0.0114561
0.0119038
0.0122635
0.0125418
0.0127396
0.0128496
0.0128528
0.0127167
0.0124095
0.0119148
0.011233
0.0104228
0.000321377
0.00111847
0.00247065
0.00401406
0.00547196
0.00682708
0.00804194
0.00910288
0.0100124
0.0107826
0.0114298
0.0119702
0.0124171
0.0127814
0.0130693
0.0132823
0.0134183
0.0134678
0.0133976
0.0131806
0.0128459
0.0124038
0.0118706
0.000346841
0.00195499
0.0035802
0.00495477
0.00627925
0.00754559
0.00869087
0.00969044
0.0105486
0.0112799
0.011901
0.0124264
0.0128675
0.013232
0.0135235
0.0137422
0.0138873
0.0139561
0.0139326
0.0137908
0.0135648
0.0132814
0.012904
0.000345675
0.0022725
0.00414715
0.00561055
0.00696324
0.00820552
0.00930306
0.0102469
0.0110486
0.0117276
0.0123033
0.0127922
0.013206
0.0135521
0.0138341
0.0140526
0.0142069
0.0142906
0.0142882
0.0141936
0.0140274
0.0138157
0.0135391
0.000330461
0.00236657
0.00439935
0.00606608
0.00751321
0.00877179
0.00984684
0.010751
0.0115064
0.0121379
0.0126684
0.0131162
0.0134938
0.013809
0.0140654
0.0142644
0.0144073
0.0144924
0.0145082
0.0144348
0.0142759
0.0140637
0.0138114
0.000325444
0.00234596
0.00455585
0.00640368
0.00794425
0.00922726
0.0102886
0.0111616
0.0118793
0.0124716
0.0129637
0.013375
0.0137184
0.0140013
0.0142271
0.0143968
0.0145107
0.0145674
0.0145584
0.014469
0.0142999
0.0140775
0.013826
0.00032481
0.00232762
0.00467417
0.00665974
0.00827263
0.00957422
0.0106232
0.0114696
0.0121557
0.0127157
0.0131764
0.0135572
0.0138708
0.0141236
0.0143179
0.014453
0.0145277
0.0145391
0.0144805
0.0143426
0.0141278
0.013861
0.0135754
0.000325699
0.00233591
0.00477719
0.00685294
0.00851152
0.00982113
0.0108559
0.0116782
0.0123371
0.0128701
0.013305
0.0136609
0.013949
0.0141744
0.014337
0.0144341
0.0144619
0.0144167
0.0142939
0.0140907
0.0138142
0.0134898
0.0131557
0.000326672
0.00236736
0.00486937
0.00699408
0.00867358
0.00998046
0.0109986
0.0117982
0.0124334
0.012944
0.013358
0.0136937
0.0139609
0.0141622
0.0142949
0.0143534
0.0143318
0.014226
0.014035
0.013763
0.013425
0.0130505
0.0126815
0.000326951
0.00240483
0.00494364
0.00708844
0.00877041
0.0100662
0.0110658
0.0118444
0.0124591
0.0129513
0.013349
0.0136696
0.0139209
0.014103
0.01421
0.0142335
0.0141656
0.0140026
0.013748
0.0134144
0.0130271
0.0126243
0.0122511
0.000326147
0.0024369
0.00499371
0.00713998
0.00881246
0.0100919
0.0110721
0.0118314
0.0124288
0.0129065
0.0132925
0.0136033
0.0138447
0.0140142
0.0141026
0.0140985
0.0139921
0.0137807
0.0134721
0.0130869
0.0126597
0.0122349
0.0118571
0.000324129
0.00245555
0.00501625
0.00715272
0.00880873
0.010069
0.0110301
0.0117722
0.0123553
0.0128222
0.0132008
0.0135069
0.013745
0.0139097
0.0139887
0.0139673
0.0138337
0.0135855
0.013234
0.0128065
0.0123437
0.0118934
0.0114982
0.00032091
0.00245776
0.0050115
0.00713104
0.00876666
0.0100068
0.0109499
0.0116768
0.0122483
0.0127074
0.0130824
0.0133887
0.0136296
0.0137976
0.0138772
0.01385
0.0137017
0.0134291
0.0130458
0.0125833
0.0120869
0.0116074
0.0111878
0.000316562
0.00244436
0.00498212
0.00707937
0.00869223
0.00991232
0.0108388
0.0115528
0.012115
0.0125688
0.0129428
0.0132529
0.0135018
0.0136803
0.01377
0.0137483
0.0135974
0.0133122
0.0129065
0.0124148
0.0118866
0.0113765
0.0109308
0.000311181
0.00241859
0.00493183
0.00700172
0.00859013
0.00979083
0.0107027
0.0114058
0.0119607
0.0124107
0.0127856
0.0131017
0.0133621
0.0135568
0.0136643
0.0136581
0.0135156
0.013228
0.0128082
0.0122927
0.0117354
0.0111963
0.0107268
0.000304905
0.00238377
0.00486375
0.00690134
0.00846412
0.00964651
0.0105457
0.0112402
0.0117894
0.0122369
0.0126133
0.0129363
0.0132101
0.0134244
0.0135557
0.0135731
0.0134484
0.013168
0.0127425
0.0122094
0.0116278
0.0110644
0.0105765
0.000297951
0.00234099
0.0047797
0.00678079
0.00831732
0.00948287
0.0103717
0.0110596
0.0116047
0.0120505
0.0124285
0.0127583
0.0130456
0.0132811
0.01344
0.0134874
0.0133891
0.0131255
0.0127034
0.0121612
0.0115628
0.010982
0.010482
0.000290585
0.00229062
0.00468086
0.00664227
0.00815265
0.00930313
0.0101838
0.0108673
0.0114098
0.0118546
0.0122341
0.0125697
0.0128696
0.0131263
0.0133147
0.0133969
0.0133329
0.0130962
0.0126888
0.0121483
0.0115427
0.0109523
0.010446
0.000283098
0.00223353
0.00456871
0.00648818
0.00797312
0.00911053
0.0099854
0.0106665
0.0112079
0.0116523
0.0120329
0.0123731
0.0126839
0.0129604
0.0131789
0.0132996
0.0132773
0.0130783
0.0126983
0.0121724
0.0115705
0.0109782
0.0104693
0.000275785
0.00217129
0.00444564
0.00632163
0.00778221
0.0089086
0.00977973
0.0104602
0.0110017
0.0114462
0.0118275
0.0121709
0.0124904
0.0127847
0.0130327
0.0131944
0.0132207
0.0130705
0.0127318
0.0122347
0.0116482
0.011061
0.0105513
0.000268935
0.00210608
0.0043151
0.00614677
0.0075842
0.0087013
0.0095703
0.0102513
0.0107937
0.0112386
0.0116201
0.0119653
0.0122912
0.0126007
0.0128765
0.0130806
0.0131612
0.0130707
0.0127879
0.0123344
0.0117752
0.0111997
0.01069
0.000262821
0.0020405
0.00418151
0.00596882
0.00738425
0.00849325
0.00936093
0.0100429
0.0105863
0.0110313
0.0114123
0.0117577
0.0120877
0.0124093
0.0127106
0.0129569
0.0130963
0.0130752
0.0128623
0.0124678
0.0119485
0.0113919
0.0108835
0.000257697
0.00197738
0.00405007
0.00579404
0.00718854
0.00828983
0.00915593
0.00983825
0.0103818
0.0108258
0.011205
0.0115489
0.0118804
0.012211
0.0125343
0.0128213
0.0130219
0.0130782
0.0129482
0.0126283
0.0121631
0.0116346
0.0111311
0.0002538
0.00191941
0.00392639
0.00562949
0.00700415
0.00809725
0.00896018
0.00964076
0.0101822
0.0106234
0.010999
0.0113394
0.0116696
0.0120054
0.0123467
0.0126711
0.0129326
0.0130714
0.0130356
0.0128056
0.0124102
0.0119229
0.0114357
0.000251356
0.00186887
0.00381603
0.00548266
0.00683885
0.00792242
0.00877918
0.0094544
0.00999037
0.0104256
0.0107949
0.0111292
0.0114552
0.0117922
0.0121463
0.0125029
0.0128228
0.0130478
0.0131183
0.0129993
0.0126997
0.0122761
0.0118152
0.000250596
0.00182729
0.00372412
0.00536111
0.00670078
0.00777271
0.00861888
0.0092835
0.00980895
0.010234
0.0105934
0.0109184
0.0112367
0.0115703
0.0119312
0.0123133
0.0126865
0.0129976
0.0131836
0.0131952
0.0130189
0.0126877
0.012273
0.000251762
0.00179542
0.00365514
0.00527204
0.00659798
0.00765555
0.0084853
0.0091325
0.00964106
0.0100505
0.0103956
0.0107076
0.0110142
0.0113395
0.0117001
0.0120985
0.0125152
0.0129059
0.013209
0.0133649
0.0133384
0.0131348
0.0128008
0.000255112
0.00177362
0.00361318
0.0052222
0.00653795
0.0075778
0.00838402
0.00900578
0.00948992
0.00987741
0.0102033
0.010498
0.0107888
0.0111006
0.0114532
0.0118567
0.0123029
0.0127594
0.0131715
0.0134751
0.0136181
0.0135781
0.0133712
0.000260894
0.00176276
0.00360251
0.00521787
0.00652723
0.00754512
0.00831963
0.00890687
0.00935836
0.00971714
0.0100183
0.0102913
0.0105622
0.0108552
0.0111921
0.0115888
0.0120476
0.0125498
0.0130523
0.0134941
0.0138131
0.0139641
0.0139319
0.000269298
0.00176534
0.00362835
0.00526521
0.0065712
0.00756141
0.00829486
0.00883794
0.00924842
0.0095718
0.00984302
0.01009
0.0103368
0.0106063
0.0109204
0.0112985
0.0117519
0.0122754
0.0128407
0.013397
0.0138809
0.0142326
0.0144105
0.000280394
0.00178617
0.00369754
0.0053707
0.00667395
0.00762835
0.00831008
0.00879924
0.00916097
0.00944301
0.00967964
0.00989672
0.0101159
0.0103576
0.0106427
0.010992
0.0114227
0.0119415
0.0125362
0.0131711
0.0137905
0.0143295
0.0147289
0.000294089
0.00183228
0.00381895
0.0055416
0.00683815
0.0077449
0.0083628
0.00878883
0.00909547
0.00933176
0.00953041
0.00971465
0.00990321
0.0101137
0.0103649
0.010677
0.0110703
0.0115598
0.0121484
0.012818
0.0135277
0.0142178
0.0148214
0.000310179
0.00191206
0.00400413
0.00578639
0.00706505
0.0079069
0.00844752
0.00880249
0.00904994
0.00923825
0.0093973
0.00954705
0.00970302
0.00987983
0.0100934
0.0103621
0.0107063
0.0111462
0.0116953
0.012353
0.0130975
0.0138833
0.0146471
0.000328514
0.00203123
0.00427111
0.00611734
0.00735377
0.00810634
0.00855563
0.00883406
0.00902129
0.00916209
0.00928202
0.00939719
0.00951981
0.00966142
0.00983491
0.0100559
0.0103431
0.0107177
0.0111997
0.0118018
0.0125215
0.013334
0.014191
0.000349109
0.00220034
0.00465385
0.00655062
0.00769912
0.00833045
0.00867567
0.00887602
0.00900574
0.00910243
0.00918593
0.00926816
0.00935805
0.00946417
0.0095964
0.00976717
0.00999225
0.010291
0.010685
0.0111946
0.0118327
0.0125962
0.0134604
0.000372213
0.00247419
0.00521934
0.00710489
0.00808726
0.0085606
0.00879418
0.00892054
0.00899949
0.00905819
0.00910997
0.00916257
0.00922183
0.0092936
0.00938483
0.0095046
0.00966491
0.00988135
0.0101731
0.0105619
0.0110683
0.0117064
0.0124769
0.000399122
0.00298354
0.00609888
0.00778861
0.00848769
0.00877223
0.00889751
0.00896083
0.00899936
0.00902825
0.00905452
0.00908219
0.00911445
0.00915462
0.00920689
0.00927687
0.00937224
0.00950346
0.00968423
0.00993163
0.0102653
0.0107049
0.0112682
0.000433277
0.00429064
0.00755197
0.00855691
0.00884385
0.00893805
0.00897498
0.00899266
0.00900331
0.00901146
0.00901917
0.00902761
0.00903782
0.00905093
0.00906844
0.00909241
0.0091258
0.00917275
0.00923899
0.00933211
0.0094616
0.00963815
0.00987345
0.00063909
0.000599411
0.000555225
0.000510758
0.00257695
0.0021421
0.00193304
0.00184129
0.00521923
0.00462277
0.00420292
0.00391107
0.00775439
0.0072239
0.00677101
0.00638847
0.00986367
0.00944287
0.00904323
0.00866523
0.0114631
0.0111417
0.0108169
0.0104873
0.0125855
0.0123277
0.0120613
0.0117805
0.0132919
0.0130736
0.0128396
0.0125924
0.0136066
0.0134235
0.0132217
0.0129993
0.0136317
0.0134536
0.0132559
0.0130344
0.013373
0.0131893
0.0129868
0.012759
0.0129317
0.0127335
0.01252
0.0122817
0.0124431
0.0122344
0.012011
0.0117634
0.0120174
0.0118044
0.0115682
0.0113046
0.0116223
0.0114073
0.0111685
0.0109013
0.011252
0.0110327
0.0107951
0.0105316
0.0109257
0.0106999
0.0104615
0.0102024
0.0106518
0.0104201
0.0101822
0.00993022
0.0104327
0.0101989
0.00996592
0.0097263
0.0102706
0.0100397
0.00981759
0.00959614
0.0101677
0.00994495
0.00973874
0.0095397
0.0101249
0.00991433
0.00972708
0.00955211
0.010141
0.00994479
0.00977711
0.00962522
0.0102129
0.0100314
0.00988163
0.00974977
0.0103373
0.010169
0.0100333
0.00991695
0.0105121
0.0103532
0.0102254
0.0101188
0.0107378
0.0105817
0.0104539
0.0103484
0.0110249
0.0108626
0.0107273
0.0106148
0.0113863
0.0112118
0.0110619
0.0109352
0.0118341
0.0116454
0.0114745
0.0113252
0.0123752
0.0121783
0.0119867
0.0118094
0.0130001
0.0128134
0.0126145
0.0124152
0.0136689
0.013524
0.0133473
0.0131507
0.0143074
0.0142407
0.0141267
0.013974
0.0148195
0.0148609
0.0148471
0.0147822
0.015113
0.0152762
0.0153849
0.015439
0.0151194
0.0154001
0.0156345
0.0158186
0.0147999
0.0151779
0.0155238
0.0158309
0.0141388
0.0145778
0.015005
0.015412
0.0131334
0.0135775
0.0140333
0.0144941
0.011784
0.0121504
0.0125474
0.0129734
0.0100976
0.0102628
0.0104501
0.0106641
0.000691326
0.00149418
0.00195137
0.00243415
0.00289789
0.00323673
0.00345933
0.00352804
0.00353723
0.00356368
0.00367564
0.00393088
0.00431666
0.00464942
0.00471824
0.00436541
0.00350181
0.00207755
0.00023831
0.00183116
0.00193107
0.00211464
0.00241854
0.00277085
0.00308656
0.00336153
0.00356799
0.00367952
0.00371119
0.00373081
0.00384869
0.00416107
0.00459842
0.00494652
0.00491059
0.00418783
0.00253752
0.000259298
0.0035732
0.00339174
0.00331226
0.00330509
0.0033518
0.00343581
0.00354715
0.00366922
0.00377516
0.00384303
0.00387678
0.00392702
0.00409834
0.0044373
0.00487894
0.00514113
0.00472831
0.00303952
0.000284755
0.00583706
0.00541666
0.00510858
0.00485448
0.00462978
0.00443124
0.00426715
0.00415021
0.00408513
0.00406237
0.00404479
0.00406026
0.00417908
0.00441104
0.00477586
0.00515602
0.00505957
0.0035248
0.000315512
0.00806222
0.00751675
0.00706394
0.00663518
0.00621535
0.00579921
0.00539662
0.00503032
0.00472645
0.0045027
0.0043625
0.00428767
0.00430501
0.00450702
0.00483212
0.0051806
0.00524608
0.0039473
0.000351855
0.00992973
0.00935778
0.00881783
0.0082889
0.00775694
0.00721465
0.0066648
0.00612333
0.00561764
0.00518297
0.00485107
0.00465071
0.00458493
0.00466211
0.00499961
0.00535451
0.00543832
0.0043117
0.000393728
0.0112865
0.0107253
0.0101709
0.00961185
0.00904001
0.00844844
0.00783889
0.00721705
0.00659338
0.00600308
0.00549399
0.00511698
0.0049547
0.00500002
0.00519747
0.00561447
0.00572522
0.00465966
0.00044068
0.012149
0.011628
0.011098
0.0105539
0.00999088
0.00939408
0.00877981
0.00815808
0.0074986
0.00682718
0.00619778
0.00567639
0.00535663
0.00541152
0.00557481
0.00591731
0.00607839
0.00501727
0.000491108
0.0125869
0.0120995
0.0115985
0.0110866
0.0105697
0.0100316
0.009457
0.00888494
0.00823891
0.00754331
0.00685385
0.00623894
0.00580678
0.00578941
0.00612278
0.00627953
0.00643214
0.0053665
0.000541563
0.0126198
0.0121486
0.0116872
0.0112374
0.0107901
0.0103194
0.00983077
0.00933948
0.00878605
0.00808934
0.00738343
0.00672802
0.00623101
0.00610097
0.00671559
0.00685229
0.0067501
0.00564874
0.000587054
0.0123326
0.0118666
0.0114334
0.0110358
0.0106627
0.0102937
0.00991793
0.00950537
0.00903241
0.00843061
0.00774512
0.00709455
0.00658103
0.00641538
0.00716397
0.00744626
0.00699105
0.00581116
0.000623026
0.0118403
0.0113736
0.0109544
0.0105885
0.0102705
0.00998695
0.00971715
0.00941556
0.00905115
0.00854176
0.00792443
0.00731988
0.00683878
0.00670301
0.00758525
0.00808519
0.00717953
0.00583336
0.000646313
0.0113068
0.0108322
0.0104116
0.0100551
0.00976747
0.00954535
0.00936598
0.00916758
0.00888853
0.0084836
0.00795595
0.007419
0.00701148
0.0069611
0.00801446
0.00871983
0.00731686
0.00573055
0.000656874
0.0108245
0.0103349
0.00990494
0.00954731
0.00927524
0.00909302
0.00897513
0.00884463
0.00863322
0.00831638
0.00788372
0.00742666
0.00712199
0.00721091
0.00848249
0.00932191
0.00739233
0.00554072
0.000657399
0.0104125
0.00991278
0.00947356
0.00911314
0.00885266
0.00869992
0.00862349
0.00854343
0.00838332
0.0081093
0.0077305
0.00737203
0.00718875
0.0074683
0.00908462
0.0100365
0.00748028
0.00534138
0.000652739
0.0100531
0.0095605
0.0091223
0.00876562
0.00852085
0.00839601
0.00835103
0.00830454
0.00817674
0.00790146
0.00756048
0.0072875
0.0072161
0.00769236
0.00961658
0.0106838
0.00768552
0.00522427
0.000648723
0.00974304
0.00927098
0.00884531
0.00850238
0.00828133
0.008184
0.0081614
0.00813292
0.00802892
0.00774671
0.00742674
0.00720587
0.00720742
0.00773887
0.00986445
0.0111221
0.00793111
0.00518684
0.00064805
0.00949704
0.00905292
0.00864633
0.0083243
0.00813264
0.00805743
0.00804042
0.00802425
0.00795347
0.00770706
0.00738436
0.00718159
0.00721764
0.00777642
0.00995853
0.0111216
0.00793448
0.00510819
0.000645792
0.0093282
0.00891687
0.00853295
0.00823654
0.00807716
0.00801545
0.00798643
0.00798002
0.00798438
0.00784919
0.00752249
0.00729332
0.00731958
0.00787496
0.0100623
0.0108795
0.00755858
0.0048932
0.000635416
0.00924118
0.00886584
0.00850815
0.00824286
0.0081194
0.00806599
0.00801025
0.00801165
0.00811178
0.00813225
0.00796011
0.00762848
0.00758328
0.00811775
0.010015
0.0103278
0.00697418
0.00455997
0.00061668
0.00923241
0.0088938
0.00856641
0.00833923
0.008256
0.00820543
0.00809476
0.00804683
0.00817498
0.00833595
0.00836951
0.00825932
0.00806136
0.00860159
0.00996432
0.0093358
0.0063558
0.00412936
0.000597813
0.0092924
0.00898767
0.00869279
0.00850779
0.00846351
0.008404
0.00819882
0.00802252
0.00807071
0.00844574
0.00875777
0.00854549
0.00853292
0.00915562
0.00966176
0.00836876
0.00588562
0.00371183
0.00057838
0.00940915
0.00913104
0.0088656
0.0087188
0.00870461
0.00862744
0.00832584
0.00806799
0.00800248
0.00831167
0.00907212
0.00948428
0.00954501
0.00998867
0.0095115
0.00768261
0.00552169
0.00335273
0.0005581
0.00957127
0.00930883
0.00906263
0.00894077
0.00894662
0.00886022
0.00850593
0.00813933
0.00790472
0.00800308
0.0084645
0.00945653
0.0103688
0.0107382
0.00943899
0.00714293
0.00517406
0.00305094
0.000537058
0.00976985
0.00951128
0.00926764
0.00914893
0.00916279
0.00908671
0.00868915
0.00820788
0.00787847
0.00783187
0.00811007
0.00883001
0.0102134
0.011044
0.00919664
0.0065828
0.0048062
0.00279211
0.000515725
0.00999811
0.00973583
0.00947566
0.0093315
0.00933056
0.00927415
0.00886573
0.00832934
0.00793293
0.00778009
0.00792754
0.00843492
0.00964191
0.0107091
0.00861626
0.00595166
0.00442878
0.00256482
0.000494723
0.01025
0.00998561
0.00969741
0.00949704
0.00944607
0.00940516
0.00906876
0.00851279
0.00806931
0.00784169
0.00788979
0.00824708
0.0092408
0.00998423
0.00775881
0.0053188
0.00408029
0.00236102
0.000474546
0.0105332
0.0102696
0.00995084
0.00966439
0.00953282
0.00949082
0.00925397
0.00875278
0.00828592
0.00800282
0.00797176
0.00820902
0.00909218
0.00908348
0.00669337
0.00480615
0.00380395
0.00217483
0.000455366
0.0108597
0.0105978
0.0102658
0.00989759
0.00961665
0.009507
0.00940432
0.00902797
0.00857046
0.0082338
0.00813983
0.00826587
0.00887828
0.00785582
0.0058179
0.00451988
0.00361851
0.00200475
0.000437013
0.0112407
0.010971
0.0106418
0.0102274
0.00980135
0.00949575
0.00935097
0.00919421
0.00885909
0.00853037
0.00844808
0.00844632
0.00801814
0.00666852
0.00538749
0.00448215
0.00351323
0.00185759
0.000419111
0.0116996
0.0113993
0.0110722
0.0106518
0.0101401
0.00962909
0.00922612
0.00894157
0.00868075
0.00839711
0.00822812
0.00782371
0.00697427
0.00613186
0.00540287
0.00462885
0.00346556
0.00174417
0.000401315
0.0122732
0.0119149
0.0115635
0.0111516
0.0106348
0.010036
0.00943371
0.00889464
0.0084394
0.00805992
0.00770403
0.00726838
0.00675745
0.00625796
0.00567994
0.00485881
0.00345967
0.00167078
0.000383512
0.0129932
0.0125705
0.0121567
0.0117203
0.0112206
0.0106478
0.0100359
0.00943891
0.00889937
0.00840631
0.00797697
0.00758272
0.0071606
0.00664922
0.00602276
0.00509206
0.00348674
0.00163608
0.000365931
0.0138473
0.0134032
0.0129171
0.012404
0.0118605
0.0112887
0.0107088
0.0101483
0.00959539
0.00907024
0.00858375
0.00811233
0.00759606
0.00699519
0.00631612
0.00528402
0.00353358
0.00163094
0.000349091
0.0147495
0.0143765
0.0138705
0.0132713
0.0126136
0.0119336
0.0112674
0.01064
0.0100465
0.00949374
0.00895446
0.00840368
0.00781944
0.00720469
0.00651539
0.00540752
0.00357619
0.00163925
0.000333577
0.0155554
0.0153597
0.0149381
0.0143206
0.0135505
0.0126923
0.0118229
0.0109814
0.0102552
0.00962004
0.00902789
0.0084476
0.00787248
0.00730128
0.00661004
0.00544202
0.00358464
0.00164197
0.000319774
0.016114
0.0161744
0.0159453
0.0154258
0.0146359
0.0136359
0.0125131
0.0114212
0.0104812
0.00969516
0.00902199
0.00842289
0.00787503
0.00733138
0.00660471
0.0053783
0.00353622
0.00162443
0.00030778
0.0163095
0.0166642
0.0167014
0.0163829
0.0156889
0.0146607
0.0133889
0.0121014
0.0109403
0.00996214
0.0091601
0.00849699
0.00792112
0.00733173
0.00651533
0.0052254
0.00342689
0.0015825
0.000297502
0.0160564
0.0167178
0.0170726
0.0170309
0.0165215
0.0155632
0.0143076
0.0129507
0.0116455
0.0104929
0.00952995
0.00873678
0.00804472
0.00732195
0.00636707
0.00501093
0.00327379
0.0015235
0.000288811
0.0152548
0.0162103
0.0169511
0.0172989
0.0170284
0.0162117
0.015065
0.0137562
0.0124205
0.0111665
0.0100579
0.00909766
0.00822291
0.00730652
0.00618828
0.0047699
0.0031025
0.00145835
0.000281549
0.0137275
0.0148691
0.0160749
0.0171777
0.0172467
0.0165946
0.0155669
0.0143508
0.0130586
0.0117803
0.0105791
0.00947049
0.00840923
0.00729727
0.0060279
0.00456028
0.00295773
0.0014054
0.000275698
0.0110981
0.0119753
0.0135153
0.0166671
0.0172367
0.0167693
0.0158547
0.0147238
0.0134815
0.0122023
0.0109422
0.00972135
0.00851146
0.00724678
0.00586702
0.00437127
0.00282656
0.00135395
0.000270796
)
;

boundaryField
{
    leftWall
    {
        type            nutkWallFunction;
        blending        stepwise;
        value           nonuniform List<scalar> 
50
(
1.28636e-05
1.58943e-05
1.70832e-05
1.79335e-05
1.88748e-05
1.96705e-05
2.02878e-05
2.07517e-05
2.12169e-05
2.16012e-05
2.24556e-05
2.53487e-05
3.07567e-05
3.65415e-05
3.99806e-05
3.9916e-05
3.78727e-05
3.71838e-05
3.70952e-05
3.72162e-05
3.73508e-05
3.73931e-05
3.72902e-05
3.7024e-05
3.65957e-05
3.60141e-05
3.52909e-05
3.44435e-05
3.35e-05
3.24961e-05
3.1471e-05
3.0465e-05
2.95181e-05
2.86688e-05
2.79532e-05
2.74048e-05
2.70564e-05
2.69406e-05
2.70915e-05
2.75445e-05
2.83332e-05
2.94821e-05
3.09977e-05
3.2863e-05
3.50449e-05
3.75169e-05
4.02742e-05
4.33428e-05
4.68856e-05
5.13383e-05
)
;
    }
    rightWall
    {
        type            nutkWallFunction;
        blending        stepwise;
        value           nonuniform List<scalar> 
50
(
6.16993e-06
1.13686e-05
1.43256e-05
1.65395e-05
1.83449e-05
1.99104e-05
2.13419e-05
2.27284e-05
2.51309e-05
2.799e-05
3.14045e-05
3.54679e-05
4.01956e-05
4.55544e-05
5.14649e-05
5.772e-05
6.39002e-05
6.94317e-05
7.37988e-05
7.66092e-05
7.78658e-05
7.79334e-05
7.74238e-05
7.7013e-05
7.69645e-05
7.66639e-05
7.53805e-05
7.31408e-05
7.08862e-05
6.8548e-05
6.60879e-05
6.3519e-05
6.09019e-05
5.83144e-05
5.5817e-05
5.34292e-05
5.1128e-05
4.88658e-05
4.66002e-05
4.43196e-05
4.20562e-05
3.98791e-05
3.78653e-05
3.60662e-05
3.44969e-05
3.31479e-05
3.20048e-05
3.10481e-05
3.02762e-05
2.96281e-05
)
;
    }
    lowerWall
    {
        type            nutkWallFunction;
        blending        stepwise;
        value           nonuniform List<scalar> 
62
(
6.24186e-06
8.3267e-06
1.0389e-05
1.18601e-05
1.3046e-05
1.39832e-05
1.47738e-05
1.54554e-05
1.60486e-05
1.65639e-05
1.7006e-05
1.73758e-05
1.76707e-05
1.78836e-05
1.80005e-05
1.79849e-05
1.78742e-05
1.762e-05
1.71646e-05
1.64669e-05
1.54303e-05
1.39348e-05
1.22354e-05
1.22354e-05
3.32171e-05
3.91329e-05
4.41652e-05
4.76821e-05
5.08213e-05
5.39855e-05
5.79214e-05
6.54197e-05
6.17083e-05
5.75417e-05
5.3313e-05
0
2.26669e-05
2.85959e-05
3.28135e-05
3.60166e-05
3.84525e-05
4.03239e-05
4.4141e-05
0
2.95366e-06
5.08428e-06
6.51987e-06
7.74087e-06
8.35543e-06
8.44144e-06
8.09776e-06
7.48508e-06
6.77965e-06
5.88275e-06
4.85081e-06
3.74568e-06
2.74124e-06
1.81344e-06
8.54261e-07
0
0
0
)
;
    }
    atmosphere
    {
        type            calculated;
        value           nonuniform List<scalar> 
46
(
0.009
0.009
0.009
0.009
0.009
0.009
0.009
0.009
0.009
0.009
0.009
0.009
0.009
0.009
0.009
0.009
0.009
0.009
0.009
0.009
0.009
0.009
0.009
0.009
0.009
0.009
0.009
0.009
0.009
0.009
0.0166671
0.0172367
0.0167693
0.0158547
0.0147238
0.0134815
0.0122023
0.0109422
0.00972135
0.00851146
0.00724678
0.00586702
0.00437127
0.00282656
0.00135395
0.000270796
)
;
    }
    defaultFaces
    {
        type            empty;
    }
    porous_half0
    {
        type            cyclic;
    }
    porous_half1
    {
        type            cyclic;
    }
}


// ************************************************************************* //
