/*--------------------------------*- C++ -*----------------------------------*\
| =========                 |                                                 |
| \\      /  F ield         | OpenFOAM: The Open Source CFD Toolbox           |
|  \\    /   O peration     | Version:  2212                                  |
|   \\  /    A nd           | Website:  www.openfoam.com                      |
|    \\/     M anipulation  |                                                 |
\*---------------------------------------------------------------------------*/
FoamFile
{
    version     2.0;
    format      ascii;
    arch        "LSB;label=32;scalar=64";
    class       volScalarField;
    location    "0.35";
    object      p;
}
// * * * * * * * * * * * * * * * * * * * * * * * * * * * * * * * * * * * * * //

dimensions      [1 -1 -2 0 0 0 0];

internalField   nonuniform List<scalar> 
2268
(
945.917
946.024
956.453
970.803
985.977
999.388
1010.85
1020.28
1027.87
1034.02
1039.2
1044.08
1049.5
1056.66
1067.22
1083.85
1109.23
1145.73
1194.07
1247.03
1303.21
1298.8
1345.11
886.41
885.034
893.45
905.765
919
931.284
942.051
951.129
958.652
964.953
970.516
976.003
982.31
990.658
1002.69
1020.56
1047.78
1087.02
1140.39
1199.3
1258.12
1244.87
1285.14
825.669
825.342
832.148
841.977
853.049
863.694
873.288
881.615
888.751
894.982
900.778
906.803
913.972
923.526
937.121
956.918
985.858
1026.46
1080.5
1139.76
1198.45
1196.35
1236.65
764.762
765.521
771.305
779.299
788.396
797.37
805.677
813.1
819.678
825.667
831.516
837.886
845.686
856.139
870.848
891.785
921.45
961.968
1014.55
1072.13
1129.56
1143.15
1198.42
703.785
705.861
710.798
717.343
724.768
732.235
739.323
745.837
751.799
757.441
763.195
769.706
777.857
788.819
804.085
825.413
854.888
894.155
943.996
998.819
1053.88
1083.22
1154.08
642.645
645.948
650.214
655.532
661.527
667.664
673.646
679.306
684.655
689.908
695.477
701.979
710.256
721.399
736.759
757.875
786.439
823.631
869.809
920.596
971.13
1014.55
1094.93
581.339
585.647
589.276
593.478
598.211
603.171
608.168
613.055
617.831
622.692
628.027
634.418
642.652
653.72
668.808
689.225
716.304
750.772
792.448
837.426
879.755
932.357
999.506
519.955
525.055
527.935
530.981
534.545
538.473
542.623
546.844
551.113
555.607
560.688
566.897
574.954
585.734
600.239
619.547
644.655
675.815
712.079
748.811
777.311
818.204
863.039
40.0718
40.0385
40.0225
40.0158
40.0427
40.0854
40.1198
40.1276
40.1034
40.0475
39.9658
39.8676
39.7634
39.6624
39.572
39.4975
39.4423
39.4077
39.3946
40.0175
39.9841
39.9632
39.9506
39.9736
40.0143
40.0472
40.0547
40.0315
39.9777
39.899
39.8038
39.7017
39.602
39.5123
39.4382
39.3827
39.3475
39.3336
39.9652
39.9202
39.8973
39.8817
39.9035
39.9453
39.9787
39.9861
39.9634
39.9106
39.8335
39.7403
39.6397
39.5404
39.4501
39.3746
39.3175
39.2812
39.2668
39.9101
39.8483
39.8251
39.808
39.8324
39.8804
39.9171
39.9253
39.9027
39.8494
39.7719
39.6783
39.577
39.4763
39.3838
39.3057
39.2462
39.2087
39.1945
39.8721
39.7698
39.7487
39.7306
39.7607
39.8198
39.8623
39.8723
39.8499
39.7947
39.7149
39.6186
39.514
39.4096
39.3132
39.2312
39.1686
39.1296
39.1163
39.7945
39.6836
39.6705
39.6508
39.6879
39.7617
39.8123
39.8255
39.8035
39.7454
39.6619
39.5611
39.4509
39.3404
39.238
39.1507
39.0841
39.0437
39.0314
39.8319
39.6012
39.5989
39.5696
39.6139
39.7055
39.7666
39.7825
39.7609
39.6993
39.6118
39.5055
39.3878
39.2689
39.1582
39.0639
38.9924
38.9501
38.9391
39.642
39.6143
39.5572
39.5086
39.5552
39.6772
39.7423
39.7408
39.7166
39.6521
39.5624
39.4512
39.3247
39.195
39.0736
38.9703
38.8928
38.8483
38.8384
423.824
429.897
431.278
432.353
434.157
436.656
439.683
443.034
446.635
450.621
455.306
461.162
468.792
478.869
492.092
509.208
530.763
556.157
583.169
604.423
602.256
540.064
320.111
293.897
299.166
297.066
294.569
293.464
293.906
295.607
298.094
301.111
304.693
309.051
314.54
321.599
330.604
341.829
355.85
373.484
392.896
413.423
428.263
424.169
385.235
340.584
166.564
165.382
155.722
149.503
145.761
145.186
147.049
149.754
152.886
156.503
160.77
166
172.564
180.479
189.272
199.271
211.599
228.187
247.312
265.475
274.104
265.627
253.768
62.1251
49.7358
32.8644
31.2587
30.9792
31.8921
33.5805
35.2425
36.9438
38.8651
41.0944
43.8546
47.527
51.9766
55.891
58.9215
62.1863
70.1587
86.6712
108.007
124.382
128.7
126.865
3.94018
0.945322
-0.843794
-1.23898
-1.41495
-1.54185
-1.17601
-0.675924
-0.208583
0.246743
0.713032
1.26717
2.08208
3.20641
4.04176
4.35057
4.12836
2.97692
2.40425
5.22887
8.80246
12.1091
18.4761
-1.7416
-1.29546
-1.33796
-1.35239
-1.32254
-1.30006
-1.31773
-1.36751
-1.42529
-1.47924
-1.52513
-1.565
-1.60578
-1.6673
-1.76644
-1.9362
-2.1942
-2.54279
-3.0524
-4.54112
-5.9526
-6.56624
-8.43576
-1.60278
-1.59191
-1.4886
-1.51694
-1.52666
-1.52333
-1.50369
-1.49173
-1.49788
-1.51761
-1.54679
-1.58257
-1.62268
-1.66475
-1.70396
-1.73161
-1.73396
-1.70126
-1.7326
-2.14073
-3.0368
-3.71454
-4.51476
-1.78061
-1.73272
-1.68232
-1.68573
-1.69301
-1.69742
-1.69906
-1.70642
-1.72305
-1.74771
-1.77883
-1.81574
-1.85895
-1.91037
-1.97311
-2.05199
-2.14939
-2.25146
-2.32161
-2.35083
-2.37488
-2.39763
-2.59694
-1.8975
-1.87818
-1.85763
-1.85467
-1.8589
-1.86517
-1.87337
-1.88641
-1.90595
-1.93189
-1.96372
-2.00124
-2.04492
-2.09587
-2.15532
-2.22397
-2.30053
-2.38256
-2.47715
-2.6166
-2.82599
-3.00656
-3.09611
-2.06408
-2.04357
-2.0312
-2.02692
-2.02964
-2.03665
-2.04736
-2.06274
-2.08365
-2.11026
-2.14248
-2.18036
-2.22424
-2.27479
-2.33279
-2.39882
-2.47311
-2.55651
-2.65356
-2.77339
-2.91285
-3.04917
-3.18103
-2.2218
-2.20923
-2.20147
-2.19879
-2.20194
-2.20989
-2.22215
-2.23905
-2.26101
-2.28822
-2.32078
-2.35882
-2.40268
-2.45289
-2.51015
-2.57515
-2.64864
-2.73161
-2.82607
-2.93495
-3.05722
-3.18356
-3.308
-2.38227
-2.37525
-2.3702
-2.36928
-2.37332
-2.38212
-2.39543
-2.41333
-2.43603
-2.46368
-2.49643
-2.53446
-2.57808
-2.62777
-2.68413
-2.74787
-2.81974
-2.90063
-2.99173
-3.09425
-3.20698
-3.32404
-3.43772
-2.54223
-2.53955
-2.53658
-2.53728
-2.54231
-2.55188
-2.56594
-2.58452
-2.60772
-2.63567
-2.6685
-2.70639
-2.74965
-2.79869
-2.85409
-2.91649
-2.98664
-3.06541
-3.15372
-3.25226
-3.36027
-3.47396
-3.585
-2.70092
-2.70093
-2.69982
-2.70202
-2.70806
-2.71839
-2.73309
-2.7522
-2.77579
-2.80396
-2.83683
-2.87457
-2.91746
-2.96589
-3.02041
-3.08167
-3.15045
-3.22763
-3.31419
-3.41111
-3.51907
-3.63884
-3.77509
-2.85747
-2.85906
-2.85956
-2.86309
-2.87014
-2.88124
-2.89655
-2.91615
-2.9401
-2.96848
-3.00142
-3.03907
-3.0817
-3.12969
-3.18358
-3.24406
-3.31193
-3.38813
-3.4737
-3.56976
-3.67752
-3.79864
-3.93676
-3.01136
-3.01373
-3.01564
-3.02034
-3.02836
-3.04023
-3.05615
-3.07624
-3.10057
-3.12923
-3.16232
-3.20002
-3.24258
-3.29039
-3.34401
-3.40417
-3.47172
-3.54767
-3.6331
-3.72916
-3.83714
-3.95861
-4.09592
-3.16229
-3.16491
-3.16805
-3.17377
-3.1827
-3.19531
-3.21185
-3.23244
-3.2572
-3.2862
-3.31958
-3.35749
-3.40022
-3.44817
-3.50193
-3.56228
-3.63015
-3.70662
-3.7928
-3.88986
-3.99906
-4.1218
-4.25988
-3.31008
-3.3127
-3.31683
-3.32342
-3.33317
-3.3465
-3.36364
-3.38476
-3.40998
-3.43941
-3.47318
-3.51149
-3.55462
-3.60301
-3.6573
-3.71833
-3.7871
-3.86478
-3.95253
-4.05156
-4.16311
-4.28855
-4.42962
-3.45465
-3.45717
-3.46204
-3.46938
-3.47985
-3.49383
-3.51155
-3.53319
-3.5589
-3.58881
-3.62308
-3.66192
-3.70564
-3.75473
-3.80986
-3.87194
-3.94207
-4.02149
-4.11145
-4.21322
-4.3281
-4.45758
-4.6036
-3.59597
-3.59835
-3.60375
-3.61169
-3.62279
-3.63734
-3.65559
-3.67773
-3.70392
-3.73433
-3.76914
-3.80859
-3.85302
-3.90296
-3.95913
-4.0225
-4.09426
-4.17574
-4.26831
-4.37332
-4.49223
-4.62671
-4.77913
-3.73403
-3.73622
-3.74201
-3.75041
-3.76202
-3.77706
-3.79577
-3.81835
-3.84498
-3.87585
-3.91119
-3.95125
-3.99642
-4.04725
-4.10451
-4.16923
-4.2427
-4.32633
-4.42161
-4.53006
-4.65329
-4.79327
-4.95286
-3.8687
-3.8709
-3.87686
-3.8856
-3.8976
-3.91303
-3.9321
-3.95502
-3.98201
-4.01326
-4.04903
-4.08962
-4.13545
-4.18709
-4.24535
-4.31133
-4.38636
-4.47197
-4.56979
-4.68149
-4.80892
-4.95436
-5.12116
-4.00015
-4.00225
-4.00833
-4.0173
-4.02957
-4.04526
-4.06457
-4.08772
-4.11493
-4.14642
-4.18248
-4.22343
-4.26973
-4.32198
-4.38102
-4.44796
-4.52422
-4.61141
-4.71129
-4.82571
-4.95675
-5.10704
-5.28035
-4.12831
-4.13035
-4.13645
-4.14555
-4.15796
-4.17378
-4.1932
-4.21642
-4.24367
-4.27521
-4.31134
-4.35242
-4.39891
-4.45144
-4.51088
-4.57835
-4.65531
-4.74344
-4.84462
-4.96087
-5.0945
-5.24844
-5.42686
-4.25322
-4.25523
-4.26127
-4.2704
-4.28282
-4.29863
-4.31799
-4.3411
-4.3682
-4.39956
-4.43548
-4.47636
-4.52268
-4.57508
-4.63442
-4.70185
-4.77881
-4.86704
-4.9685
-5.08537
-5.22013
-5.37597
-5.5574
-4.3749
-4.37693
-4.38284
-4.3919
-4.40422
-4.41987
-4.439
-4.46181
-4.48852
-4.51942
-4.55482
-4.59513
-4.64085
-4.6926
-4.75126
-4.81794
-4.89407
-4.9814
-5.08192
-5.1979
-5.33197
-5.48749
-5.66913
-4.49344
-4.4955
-4.50122
-4.51013
-4.52222
-4.53757
-4.5563
-4.57859
-4.60467
-4.63482
-4.66936
-4.7087
-4.75332
-4.80387
-4.86117
-4.92631
-5.0007
-5.08599
-5.18418
-5.29759
-5.42889
-5.58146
-5.75999
-4.60892
-4.61102
-4.61652
-4.62518
-4.63694
-4.65183
-4.66999
-4.69156
-4.71676
-4.74583
-4.77916
-4.8171
-4.86013
-4.90887
-4.96411
-5.02689
-5.09854
-5.18056
-5.27498
-5.38403
-5.51031
-5.65713
-5.82907
-4.72146
-4.72359
-4.72883
-4.73718
-4.74849
-4.7628
-4.78021
-4.80086
-4.82497
-4.85259
-4.88438
-4.9205
-4.96144
-5.00777
-5.06023
-5.1198
-5.18765
-5.26528
-5.35448
-5.45737
-5.57641
-5.71468
-5.87647
-4.8312
-4.83333
-4.83828
-4.84626
-4.85702
-4.87062
-4.88712
-4.90663
-4.92934
-4.95544
-4.98528
-5.01917
-5.05752
-5.10087
-5.14989
-5.20542
-5.26857
-5.34064
-5.42326
-5.51832
-5.62804
-5.75513
-5.9034
-4.93828
-4.94037
-4.945
-4.95257
-4.9627
-4.9755
-4.99093
-5.00914
-5.03027
-5.05452
-5.08214
-5.11343
-5.14878
-5.18863
-5.23358
-5.28438
-5.34196
-5.40748
-5.48232
-5.56812
-5.66674
-5.78046
-5.91238
-5.04283
-5.04485
-5.04914
-5.05631
-5.06574
-5.07764
-5.0919
-5.10866
-5.12803
-5.15018
-5.17533
-5.20373
-5.23569
-5.27161
-5.31198
-5.35743
-5.40874
-5.46688
-5.53299
-5.6084
-5.69462
-5.79336
-5.907
-5.14494
-5.14698
-5.15089
-5.15772
-5.16634
-5.17732
-5.1903
-5.20547
-5.22292
-5.2428
-5.26527
-5.29053
-5.31884
-5.35048
-5.38588
-5.42551
-5.47
-5.52014
-5.57683
-5.6411
-5.71407
-5.79696
-5.89137
-5.24477
-5.24705
-5.25043
-5.2571
-5.26468
-5.27484
-5.28642
-5.2999
-5.31533
-5.3328
-5.35244
-5.37439
-5.39883
-5.42598
-5.45612
-5.48962
-5.52695
-5.5687
-5.61555
-5.66828
-5.72766
-5.79446
-5.86965
-5.34242
-5.34555
-5.34785
-5.35498
-5.36105
-5.37039
-5.38056
-5.39229
-5.40562
-5.42061
-5.43733
-5.45587
-5.47634
-5.49886
-5.52361
-5.55083
-5.58084
-5.61404
-5.65092
-5.69203
-5.73788
-5.78892
-5.84562
-5.43762
-5.44329
-5.4431
-5.45216
-5.45541
-5.4643
-5.47307
-5.48302
-5.49421
-5.50668
-5.52045
-5.53555
-5.55202
-5.56991
-5.58927
-5.61022
-5.63293
-5.65765
-5.68468
-5.71439
-5.74711
-5.78309
-5.82252
-5.52953
-5.54124
-5.53607
-5.54799
-5.54936
-5.55711
-5.56434
-5.57247
-5.58152
-5.59147
-5.60231
-5.61401
-5.62654
-5.63988
-5.65397
-5.66882
-5.68445
-5.70096
-5.7185
-5.73728
-5.75753
-5.7794
-5.80299
-5.6183
-5.63902
-5.6287
-5.64274
-5.64235
-5.64903
-5.6547
-5.66101
-5.66792
-5.6754
-5.68338
-5.69178
-5.70052
-5.70948
-5.71854
-5.72759
-5.73653
-5.7453
-5.75393
-5.76249
-5.77112
-5.77997
-5.78922
-5.70632
-5.73674
-5.71965
-5.73721
-5.7346
-5.74035
-5.74446
-5.74896
-5.7538
-5.75888
-5.76412
-5.76938
-5.77452
-5.77937
-5.78374
-5.78742
-5.7902
-5.7919
-5.79241
-5.79168
-5.78979
-5.7869
-5.78327
-5.79079
-5.84218
-5.80879
-5.83242
-5.82691
-5.83146
-5.83396
-5.83666
-5.83949
-5.84229
-5.84493
-5.84726
-5.84907
-5.85015
-5.85025
-5.84909
-5.84639
-5.84186
-5.83527
-5.82645
-5.81541
-5.80231
-5.78761
-5.84663
-5.97892
-5.90254
-5.92933
-5.92054
-5.92274
-5.92347
-5.92437
-5.92527
-5.92595
-5.9262
-5.92583
-5.92462
-5.92232
-5.91864
-5.91328
-5.90588
-5.8961
-5.88359
-5.8681
-5.84946
-5.82774
-5.80359
-5.85671
-6.14174
-6.01066
-6.02473
-6.01488
-6.01387
-6.01287
-6.01217
-6.01133
-6.01008
-6.00817
-6.00538
-6.00147
-5.99619
-5.98924
-5.9803
-5.96903
-5.95505
-5.938
-5.91751
-5.89327
-5.86501
-5.83231
-196.339
-50.9456
-23.9154
-12.2849
239.637
200.767
86.0452
37.47
202.915
168.409
70.7742
51.2813
114.515
108.248
31.7524
26.7536
24.0923
31.322
-31.803
-26.3775
-8.3931
-2.2204
-39.5227
-31.6024
-5.36992
-5.20953
-6.44304
-4.58424
-3.00366
-3.28651
-4.05978
-4.20636
-3.1497
-3.18708
-3.80528
-3.85444
-3.2947
-3.37551
-4.02478
-4.0967
-3.3995
-3.45577
-4.0792
-4.13507
-3.51367
-3.55673
-4.16499
-4.20609
-3.65069
-3.67605
-4.23568
-4.26506
-3.90406
-4.00639
-4.14429
-4.24536
-4.05939
-4.14733
-4.24117
-4.33583
-4.21397
-4.29541
-4.38096
-4.46885
-4.37658
-4.45631
-4.53986
-4.62678
-4.54809
-4.62901
-4.71408
-4.80328
-4.7262
-4.81017
-4.89888
-4.99242
-4.90743
-4.99559
-5.08917
-5.18832
-5.08766
-5.18056
-5.2796
-5.38499
-5.26255
-5.36027
-5.46486
-5.57658
-5.42779
-5.52998
-5.63979
-5.75754
-5.57925
-5.68519
-5.79948
-5.92255
-5.71305
-5.8216
-5.93916
-6.06629
-5.82576
-5.93528
-6.05428
-6.18348
-5.9147
-6.02311
-6.14116
-6.2697
-5.97867
-6.08342
-6.19769
-6.32231
-6.01735
-6.11584
-6.22329
-6.34033
-6.03218
-6.12188
-6.21951
-6.32536
-6.02627
-6.10511
-6.19047
-6.28225
-6.00413
-6.0708
-6.14238
-6.21851
-5.97097
-6.02504
-6.08246
-6.14273
-5.93199
-5.97383
-6.01767
-6.063
-5.89175
-5.92229
-5.95381
-5.98585
-5.85393
-5.87442
-5.89518
-5.91586
-5.82134
-5.83308
-5.8447
-5.85592
-5.79608
-5.80027
-5.80413
-5.80752
-5.77996
-5.77755
-5.77481
-5.77183
-5.77591
-5.76808
-5.76016
-5.75244
-5.78548
-5.77349
-5.76123
-5.74853
-5.8039
-5.78407
-5.76302
-5.74151
9.53408
38.7597
39.5139
39.3669
39.6274
39.8372
39.7855
39.6943
39.6515
39.5759
39.4845
39.3673
39.2253
39.0752
38.9329
38.8119
38.723
38.6744
38.6664
-19.6417
-18.1043
-8.59035
15.4762
34.5932
38.9802
39.4446
39.6682
39.6522
39.4992
39.3839
39.2526
39.0831
38.8956
38.7131
38.5561
38.4427
38.3853
38.3818
22.2305
11.6246
5.49957
-7.03005
-10.7514
0.126397
26.6775
38.5047
39.5472
39.3936
39.3008
39.1326
38.9198
38.6854
38.4521
38.2462
38.097
38.0261
38.0284
14.0786
2.80585
-1.65995
-1.90232
1.08313
0.959365
-0.98809
2.68512
29.8261
38.8969
39.177
39.0283
38.7065
38.4079
38.125
37.8605
37.6633
37.5728
37.5822
-23.016
-25.4009
-24.0414
-21.8302
-17.735
-11.7535
-2.67231
2.95538
5.94419
19.0419
38.1353
38.6784
38.4362
38.0298
37.6893
37.3632
37.1084
36.9926
37.0109
-26.4647
-24.1403
-26.3316
-29.6599
-30.1327
-25.7384
-19.6114
-13.0227
-2.74554
6.0366
20.2532
37.5034
38.006
37.586
37.1064
36.6894
36.3797
36.2408
36.2723
-2.89425
-1.08189
3.85603
14.0952
20.566
22.008
-2.33885
-17.3257
-16.6226
-10.0789
4.86024
25.2161
36.8578
37.3082
36.4721
35.769
35.3954
35.2576
35.3135
-4.54871
-4.71077
-4.78578
-4.96405
-5.18465
-5.28378
0.510111
14.007
6.38375
-16.9125
-12.1703
7.76225
29.9615
35.7599
35.6172
34.4581
34.0307
33.9693
34.0758
-3.95001
-4.06897
-4.16146
-4.23032
-4.26863
-4.26289
-4.58796
-5.41135
-5.29349
-4.23105
-19.8551
-8.51156
17.4948
31.8029
34.1012
32.5521
32.2069
32.3227
32.5099
-4.20427
-4.3435
-4.45859
-4.5574
-4.62858
-4.63696
-4.57911
-4.54032
-4.94597
-7.07608
-18.702
-21.0669
5.51916
28.3935
31.2673
29.9869
29.989
30.3072
30.5922
-4.23275
-4.3599
-4.47217
-4.56841
-4.64419
-4.69367
-4.72808
-4.77581
-4.64414
-5.04642
-8.7219
-24.6527
-2.96905
21.3565
25.855
27.0043
27.4535
27.9477
28.3454
-4.28508
-4.40986
-4.52845
-4.63068
-4.71011
-4.76119
-4.78642
-4.7894
-4.68844
-4.73071
-6.40929
-22.1555
-10.3527
16.887
22.6852
24.2638
24.8063
25.3836
25.8587
-4.34363
-4.47797
-4.60755
-4.71945
-4.8047
-4.85612
-4.87395
-4.86812
-4.82418
-4.69816
-6.20691
-17.0307
-14.2949
15.9156
20.9077
21.722
22.1932
22.7595
23.2417
-4.38794
-4.55751
-4.70782
-4.83506
-4.92929
-4.98134
-4.98907
-4.9622
-4.89543
-4.63164
-5.31832
-14.4399
-15.0402
15.6485
18.9824
19.357
19.6712
20.1427
20.5742
-4.4853
-4.67244
-4.84071
-4.98392
-5.088
-5.13927
-5.1315
-5.07079
-4.95751
-4.64426
-5.48457
-14.6031
-16.4299
11.9399
16.0945
17.136
17.2097
17.5397
17.8962
-4.61659
-4.81724
-5.00476
-5.16631
-5.28193
-5.33223
-5.30698
-5.20936
-5.03351
-4.60219
-5.0996
-14.0477
-14.5481
10.95
14.5396
15.0206
14.76
14.9406
15.2182
-4.7761
-4.99087
-5.19922
-5.38134
-5.51021
-5.56087
-5.52313
-5.40885
-5.24518
-4.7633
-6.2637
-14.56
-17.303
4.47099
12.0985
12.4036
12.0202
12.2348
12.5125
-4.95817
-5.18958
-5.42065
-5.62502
-5.76781
-5.81891
-5.77111
-5.65137
-5.5488
-5.12545
-2.43295
-4.67856
-11.5697
-2.40367
6.4567
8.00006
8.60305
9.30405
9.76023
-5.15619
-5.40699
-5.66225
-5.88919
-6.0446
-6.09366
-6.03196
-5.89551
-5.81614
-5.87721
-4.00616
7.80577
10.0218
-1.25115
1.34648
4.05569
5.17111
6.40421
7.10668
-5.36314
-5.63506
-5.91471
-6.16251
-6.3263
-6.36747
-6.28169
-6.09912
-5.92659
-6.12673
-5.6345
-3.84195
0.852487
-0.746661
-3.22452
0.822556
2.53369
3.93824
4.8574
-5.57198
-5.86549
-6.1689
-6.43551
-6.60363
-6.63227
-6.5225
-6.29021
-5.94957
-5.66612
-5.45227
-4.5714
-2.55101
-2.63962
-4.18879
-1.72092
0.631674
2.10732
3.10342
-5.776
-6.09093
-6.41819
-6.705
-6.88191
-6.91188
-6.81257
-6.5908
-6.17355
-5.76846
-5.16833
-3.69035
-2.78223
-2.739
-3.14668
-2.00168
-0.107671
1.0205
1.80428
-5.96898
-6.30499
-6.65773
-6.97075
-7.17074
-7.23234
-7.20479
-7.10894
-6.78814
-5.94054
-3.66698
-2.59649
-1.57691
-1.49112
-1.59016
-0.994957
-0.0859423
0.479213
0.863426
-6.1449
-6.50148
-6.8826
-7.23097
-7.47129
-7.58978
-7.67101
-7.4434
-7.76105
-11.0906
-4.38362
-1.61919
0.196917
-0.0411634
-0.318956
-0.316909
-0.106358
0.0747383
0.137709
-6.29737
-6.67309
-7.08567
-7.4812
-7.78307
-7.9703
-8.13619
-7.58774
-6.11322
-8.30936
-12.5418
-1.98937
0.655764
0.860899
0.0406605
-0.362761
-0.458631
-0.429866
-0.507719
-6.41963
-6.81037
-7.25407
-7.70711
-8.09351
-8.3788
-8.59215
-8.27809
-6.27036
-14.0018
-21.0415
-8.47937
-0.161383
0.360306
-0.676
-1.02625
-1.10586
-1.0693
-1.1339
-6.50573
-6.90346
-7.37004
-7.8817
-8.36149
-8.7634
-9.08524
-9.14131
-7.30045
-17.5814
-23.4496
-12.9944
-2.64786
-2.23215
-2.17657
-2.08879
-1.93803
-1.7881
-1.74589
-6.55169
-6.94528
-7.42227
-7.97096
-8.53672
-9.05977
-9.51041
-9.76726
-8.88946
-11.8876
-15.1922
-8.94162
-7.02075
-5.44621
-4.05202
-3.28461
-2.80758
-2.49706
-2.3235
-6.5557
-6.93042
-7.3955
-7.95583
-8.5814
-9.20764
-9.77226
-10.2631
-10.5745
-8.44995
-5.77396
-9.23337
-9.78191
-7.11213
-5.41291
-4.22141
-3.53172
-3.09974
-2.83764
-6.51968
-6.86019
-7.28768
-7.82065
-8.45548
-9.14929
-9.83368
-10.4908
-11.2211
-12.3502
-11.9269
-11.0242
-10.367
-7.86187
-6.02073
-4.73828
-4.00852
-3.53859
-3.26838
-6.45001
-6.74345
-7.11054
-7.57399
-8.14608
-8.81048
-9.52019
-10.2369
-10.9167
-11.3636
-11.465
-11.1706
-9.80097
-7.65321
-6.01786
-4.91559
-4.25841
-3.82618
-3.61626
-6.35666
-6.59563
-6.88905
-7.25566
-7.70959
-8.24832
-8.84928
-9.48183
-10.0575
-10.353
-10.2808
-9.7982
-8.51217
-6.91172
-5.71448
-4.88875
-4.35889
-4.01274
-3.89862
-6.251
-6.4344
-6.65243
-6.91654
-7.23545
-7.60861
-8.02093
-8.43639
-8.77048
-8.89376
-8.6799
-8.1361
-7.20502
-6.16576
-5.37235
-4.78706
-4.3935
-4.15026
-4.13359
-6.14338
-6.2754
-6.42532
-6.59806
-6.79655
-7.01894
-7.25306
-7.46739
-7.60575
-7.58926
-7.35941
-6.91804
-6.29452
-5.63986
-5.1096
-4.69787
-4.42237
-4.27495
-4.33247
-6.04176
-6.12976
-6.22365
-6.32411
-6.43018
-6.53873
-6.64171
-6.72077
-6.74416
-6.67235
-6.47951
-6.16272
-5.74773
-5.31714
-4.94737
-4.65779
-4.47494
-4.4032
-4.50339
-5.95127
-6.00374
-6.05472
-6.10304
-6.14594
-6.18019
-6.20236
-6.20457
-6.17206
-6.08586
-5.93225
-5.70804
-5.42791
-5.13521
-4.87429
-4.67384
-4.56065
-4.54032
-4.65546
-5.87462
-5.89953
-5.91928
-5.93298
-5.93765
-5.93034
-5.91068
-5.87557
-5.81961
-5.73453
-5.61281
-5.45186
-5.25956
-5.05869
-4.87717
-4.743
-4.67992
-4.68885
-4.7996
-5.81282
-5.81674
-5.81421
-5.80698
-5.79259
-5.76801
-5.73185
-5.68425
-5.62393
-5.54816
-5.45327
-5.33739
-5.20461
-5.06761
-4.94472
-4.85898
-4.8293
-4.85109
-4.94651
-5.76703
-5.7552
-5.73562
-5.71711
-5.69798
-5.67111
-5.63527
-5.59076
-5.53805
-5.47692
-5.40615
-5.32484
-5.23522
-5.14466
-5.06507
-5.01323
-5.0032
-5.0273
-5.10307
-5.74032
-5.71704
-5.68052
-5.65765
-5.64511
-5.62435
-5.59838
-5.56685
-5.52969
-5.48727
-5.43972
-5.38712
-5.33099
-5.27556
-5.22789
-5.19885
-5.19835
-5.21852
-5.2734
-5.72624
-5.68871
-5.62191
-5.60876
-5.61258
-5.6049
-5.59896
-5.59034
-5.57671
-5.55781
-5.53423
-5.50685
-5.47699
-5.44697
-5.42035
-5.4033
-5.40294
-5.41448
-5.45084
-5.70521
-5.62142
-5.45346
-5.4152
-5.52787
-5.59046
-5.62425
-5.64671
-5.66224
-5.67246
-5.67836
-5.68047
-5.67924
-5.67517
-5.6689
-5.66222
-5.658
-5.65255
-5.65249
)
;

boundaryField
{
    leftWall
    {
        type            calculated;
        value           nonuniform List<scalar> 
50
(
945.917
886.41
825.669
764.762
703.785
642.645
581.339
519.955
423.824
293.897
166.564
62.1251
3.94018
-1.7416
-1.60278
-1.78061
-1.8975
-2.06408
-2.2218
-2.38227
-2.54223
-2.70092
-2.85747
-3.01136
-3.16229
-3.31008
-3.45465
-3.59597
-3.73403
-3.8687
-4.00015
-4.12831
-4.25322
-4.3749
-4.49344
-4.60892
-4.72146
-4.8312
-4.93828
-5.04283
-5.14494
-5.24477
-5.34242
-5.43762
-5.52953
-5.6183
-5.70632
-5.79079
-5.84663
-5.85671
)
;
    }
    rightWall
    {
        type            calculated;
        value           nonuniform List<scalar> 
50
(
39.3946
39.3336
39.2668
39.1945
39.1163
39.0314
38.9391
38.8384
38.6664
38.3818
38.0284
37.5822
37.0109
36.2723
35.3135
34.0758
32.5099
30.5922
28.3454
25.8587
23.2417
20.5742
17.8962
15.2182
12.5125
9.76023
7.10668
4.8574
3.10342
1.80428
0.863426
0.137709
-0.507719
-1.1339
-1.74589
-2.3235
-2.83764
-3.26838
-3.61626
-3.89862
-4.13359
-4.33247
-4.50339
-4.65546
-4.7996
-4.94651
-5.10307
-5.2734
-5.45084
-5.65249
)
;
    }
    lowerWall
    {
        type            calculated;
        value           nonuniform List<scalar> 
62
(
975.347
975.453
985.882
1000.23
1015.41
1028.82
1040.28
1049.71
1057.3
1063.45
1068.63
1073.5
1078.93
1086.09
1096.65
1113.28
1138.66
1175.16
1223.5
1276.45
1332.56
1326.76
1373.07
1345.11
1285.14
1236.65
1198.42
1154.08
1094.93
999.506
863.039
-133.955
11.4381
38.538
50.1862
40.0718
40.0175
39.9652
39.9101
39.8721
39.7945
39.8319
39.642
40.1012
40.068
40.0519
40.0452
40.0721
40.1148
40.1492
40.157
40.1328
40.0769
39.9952
39.897
39.7928
39.6918
39.6014
39.5269
39.4717
39.4371
39.4241
)
;
    }
    atmosphere
    {
        type            calculated;
        value           nonuniform List<scalar> 
46
(
-5.94587
-6.10159
-6.06457
-6.06466
-6.06018
-6.05858
-6.05728
-6.05603
-6.05449
-6.0524
-6.04953
-6.04565
-6.04055
-6.03395
-6.0256
-6.01518
-6.00238
-5.98689
-5.96842
-5.94675
-5.9218
-5.89373
-5.86311
-5.83904
-5.82368
-5.80841
-5.79349
-5.77066
-5.7454
-5.73307
-5.72904
-5.72904
-5.72904
-5.72904
-5.72904
-5.72904
-5.72904
-5.72904
-5.72904
-5.72904
-5.72904
-5.72904
-5.72904
-5.72904
-5.72904
-5.72904
)
;
    }
    defaultFaces
    {
        type            empty;
    }
    porous_half0
    {
        type            cyclic;
    }
    porous_half1
    {
        type            cyclic;
    }
}


// ************************************************************************* //
