/*--------------------------------*- C++ -*----------------------------------*\
| =========                 |                                                 |
| \\      /  F ield         | OpenFOAM: The Open Source CFD Toolbox           |
|  \\    /   O peration     | Version:  2212                                  |
|   \\  /    A nd           | Website:  www.openfoam.com                      |
|    \\/     M anipulation  |                                                 |
\*---------------------------------------------------------------------------*/
FoamFile
{
    version     2.0;
    format      ascii;
    arch        "LSB;label=32;scalar=64";
    class       volScalarField;
    location    "0.35";
    object      p_rgh;
}
// * * * * * * * * * * * * * * * * * * * * * * * * * * * * * * * * * * * * * //

dimensions      [1 -1 -2 0 0 0 0];

internalField   nonuniform List<scalar> 
2268
(
975.347
975.453
985.882
1000.23
1015.41
1028.82
1040.28
1049.71
1057.3
1063.45
1068.63
1073.5
1078.93
1086.09
1096.65
1113.28
1138.66
1175.16
1223.5
1276.45
1332.56
1326.76
1373.07
974.698
973.322
981.738
994.053
1007.29
1019.57
1030.34
1039.42
1046.94
1053.24
1058.8
1064.29
1070.6
1078.95
1090.98
1108.85
1136.07
1175.3
1228.68
1287.59
1346.41
1330.05
1371.51
972.815
972.488
979.295
989.123
1000.2
1010.84
1020.43
1028.76
1035.9
1042.13
1047.92
1053.95
1061.12
1070.67
1084.27
1104.06
1133
1173.61
1227.65
1286.9
1345.6
1343.24
1383.72
970.767
971.527
977.311
985.305
994.401
1003.38
1011.68
1019.11
1025.68
1031.67
1037.52
1043.89
1051.69
1062.14
1076.85
1097.79
1127.46
1167.97
1220.56
1278.13
1335.57
1349.16
1403.76
968.649
970.726
975.663
982.208
989.633
997.1
1004.19
1010.7
1016.66
1022.31
1028.06
1034.57
1042.72
1053.68
1068.95
1090.28
1119.75
1159.02
1208.86
1263.68
1318.74
1348.08
1418.09
966.368
969.671
973.937
979.255
985.25
991.387
997.369
1003.03
1008.38
1013.63
1019.2
1025.7
1033.98
1045.12
1060.48
1081.6
1110.16
1147.35
1193.53
1244.32
1294.85
1338.27
1417.66
963.921
968.229
971.858
976.059
980.793
985.753
990.75
995.637
1000.41
1005.27
1010.61
1017
1025.23
1036.3
1051.39
1071.81
1098.89
1133.35
1175.03
1220.01
1262.34
1314.94
1380.91
961.396
966.495
969.376
972.422
975.986
979.914
984.064
988.284
992.553
997.048
1002.13
1008.34
1016.4
1027.17
1041.68
1060.99
1086.1
1117.26
1153.52
1190.25
1218.75
1259.64
1303.13
40.1012
40.068
40.0519
40.0452
40.0721
40.1148
40.1492
40.157
40.1328
40.0769
39.9952
39.897
39.7928
39.6918
39.6014
39.5269
39.4717
39.4371
39.4241
40.1058
40.0724
40.0515
40.0389
40.0619
40.1026
40.1355
40.143
40.1198
40.066
39.9873
39.8921
39.79
39.6903
39.6006
39.5264
39.471
39.4358
39.4219
40.1123
40.0673
40.0444
40.0288
40.0506
40.0924
40.1258
40.1332
40.1105
40.0577
39.9807
39.8875
39.7868
39.6876
39.5972
39.5217
39.4646
39.4283
39.4139
40.1161
40.0543
40.0311
40.014
40.0384
40.0864
40.1231
40.1313
40.1087
40.0554
39.9779
39.8843
39.783
39.6823
39.5898
39.5117
39.4522
39.4147
39.4005
40.137
40.0347
40.0136
39.9955
40.0256
40.0847
40.1272
40.1372
40.1148
40.0596
39.9797
39.8835
39.7789
39.6745
39.5781
39.4961
39.4334
39.3945
39.3812
40.1182
40.0073
39.9942
39.9745
40.0116
40.0854
40.1361
40.1492
40.1272
40.0691
39.9856
39.8848
39.7746
39.6642
39.5618
39.4745
39.4078
39.3674
39.3551
40.2145
39.9837
39.9815
39.9522
39.9964
40.0881
40.1492
40.1651
40.1435
40.0819
39.9944
39.8881
39.7704
39.6515
39.5408
39.4465
39.375
39.3327
39.3216
40.0835
40.0558
39.9986
39.9501
39.9966
40.1186
40.1838
40.1823
40.158
40.0935
40.0039
39.8927
39.7661
39.6364
39.515
39.4117
39.3342
39.2897
39.2798
957.291
963.365
964.745
965.82
967.624
970.123
973.15
976.502
980.102
984.088
988.773
994.629
1002.26
1012.34
1025.56
1042.68
1064.23
1089.62
1116.64
1137.89
1135.72
1073.53
852.937
952.559
957.828
955.727
953.231
952.125
952.568
954.268
956.756
959.772
963.354
967.712
973.201
980.261
989.266
1000.49
1014.51
1032.15
1051.56
1072.08
1086.92
1082.83
1043.9
999.245
950.419
949.234
937.829
931.752
928.966
929.035
930.901
933.607
936.739
940.357
944.625
949.855
956.419
964.335
973.127
983.127
995.455
1012.04
1031.17
1049.33
1057.96
1049.48
1037.62
849.587
675.693
503.349
500.934
527.107
575.477
622.904
658.164
685.723
708.426
727.855
747.508
772.827
805.498
835.588
867.295
909.145
963.993
995.722
1017.06
1033.43
1037.75
1035.92
109.83
30.4637
0.190453
-0.20473
-0.380705
-0.507598
8.14112
22.1671
34.9932
46.7315
57.4671
68.9753
85.718
111.497
136.209
164.033
209.842
310.299
529.589
837.411
1041.79
1046.36
1052.72
-0.582153
-0.136011
-0.178515
-0.192948
-0.163099
-0.140616
-0.158287
-0.208063
-0.265843
-0.319792
-0.365689
-0.405558
-0.446338
-0.507857
-0.606996
-0.776757
-1.03476
-1.38335
1.89667
38.7747
139.627
325.445
562.159
-0.318147
-0.307279
-0.203965
-0.232304
-0.242026
-0.238691
-0.219054
-0.207093
-0.213248
-0.232977
-0.262154
-0.29794
-0.338045
-0.38012
-0.419322
-0.446977
-0.449327
-0.416627
-0.447962
-0.856094
-1.74907
-2.4199
4.29237
-0.370782
-0.322895
-0.272494
-0.275904
-0.283186
-0.2876
-0.289235
-0.296594
-0.313221
-0.337883
-0.369005
-0.405912
-0.449122
-0.500549
-0.563282
-0.642164
-0.739566
-0.841638
-0.911783
-0.937608
-0.951324
-0.972607
-1.17476
-0.362479
-0.343163
-0.322611
-0.319647
-0.32388
-0.330146
-0.338352
-0.351392
-0.370931
-0.396875
-0.4287
-0.466224
-0.509902
-0.560842
-0.620265
-0.688918
-0.765503
-0.847537
-0.942134
-1.06329
-1.25151
-1.43208
-1.52162
-0.403863
-0.383357
-0.370989
-0.366708
-0.369422
-0.376439
-0.387143
-0.402529
-0.423436
-0.450042
-0.482266
-0.520142
-0.564021
-0.614549
-0.672502
-0.73853
-0.812846
-0.896292
-0.993346
-1.11151
-1.21999
-1.34629
-1.47814
-0.436386
-0.423817
-0.416062
-0.413378
-0.416527
-0.42448
-0.436743
-0.453644
-0.4756
-0.502813
-0.535365
-0.573406
-0.617266
-0.667468
-0.72466
-0.789658
-0.863164
-0.946156
-1.04064
-1.14954
-1.27181
-1.39815
-1.52259
-0.471667
-0.464642
-0.45959
-0.45867
-0.462716
-0.471519
-0.484825
-0.502723
-0.52542
-0.553076
-0.585824
-0.62385
-0.667471
-0.717161
-0.773514
-0.837229
-0.909113
-0.990022
-1.08113
-1.18364
-1.29638
-1.41343
-1.52712
-0.50643
-0.503754
-0.500781
-0.501484
-0.506513
-0.516083
-0.530141
-0.548717
-0.571919
-0.599867
-0.632694
-0.670589
-0.713848
-0.762894
-0.818286
-0.880685
-0.950844
-1.02961
-1.11792
-1.21646
-1.32446
-1.43816
-1.5492
-0.539921
-0.539934
-0.538826
-0.541024
-0.547068
-0.557397
-0.572097
-0.591206
-0.614797
-0.642965
-0.675829
-0.713569
-0.756459
-0.804896
-0.859416
-0.920676
-0.989454
-1.06664
-1.1532
-1.25012
-1.35808
-1.47785
-1.6141
-0.571276
-0.572868
-0.573367
-0.576895
-0.583949
-0.595047
-0.61036
-0.629956
-0.653906
-0.682294
-0.715228
-0.752878
-0.795506
-0.8435
-0.897394
-0.957866
-1.02574
-1.10194
-1.18751
-1.28357
-1.39133
-1.51245
-1.65057
-0.599974
-0.60234
-0.604252
-0.60895
-0.616976
-0.628842
-0.644767
-0.664854
-0.689183
-0.717841
-0.750935
-0.788631
-0.83119
-0.879004
-0.932629
-0.992781
-1.06033
-1.13629
-1.22171
-1.31777
-1.42575
-1.54722
-1.68453
-0.625707
-0.628332
-0.631465
-0.637184
-0.646114
-0.658729
-0.675268
-0.695863
-0.720615
-0.74962
-0.782994
-0.82091
-0.863637
-0.911586
-0.965348
-1.02569
-1.09357
-1.17004
-1.25621
-1.35328
-1.46248
-1.58522
-1.7233
-0.648303
-0.650919
-0.655049
-0.661647
-0.671398
-0.684721
-0.701864
-0.722983
-0.7482
-0.77763
-0.811405
-0.849713
-0.892844
-0.941236
-0.995526
-1.05655
-1.12533
-1.203
-1.29075
-1.38978
-1.50133
-1.62678
-1.76784
-0.667675
-0.670196
-0.675064
-0.682404
-0.692882
-0.706857
-0.724577
-0.746219
-0.771927
-0.801837
-0.836105
-0.874944
-0.91867
-0.967755
-1.02289
-1.08496
-1.1551
-1.23452
-1.32448
-1.42625
-1.54113
-1.67061
-1.81663
-0.683805
-0.686179
-0.691578
-0.699519
-0.71062
-0.725174
-0.743425
-0.765564
-0.791755
-0.822163
-0.85697
-0.896419
-0.940856
-0.990791
-1.04696
-1.11033
-1.18209
-1.26358
-1.35614
-1.46116
-1.58006
-1.71455
-1.86696
-0.696668
-0.698861
-0.704648
-0.713051
-0.724662
-0.739706
-0.758416
-0.780993
-0.807624
-0.838497
-0.873828
-0.91389
-0.959061
-1.00989
-1.06715
-1.13188
-1.20534
-1.28897
-1.38425
-1.4927
-1.61593
-1.75592
-1.9155
-0.706147
-0.708347
-0.714316
-0.723051
-0.735051
-0.750479
-0.769552
-0.792477
-0.819459
-0.850712
-0.886483
-0.927075
-0.972902
-1.02454
-1.08281
-1.14878
-1.22381
-1.30943
-1.40724
-1.51894
-1.64637
-1.79182
-1.95861
-0.712402
-0.714507
-0.720588
-0.729559
-0.741825
-0.757516
-0.776831
-0.799981
-0.827183
-0.858676
-0.894733
-0.935691
-0.98199
-1.03424
-1.09327
-1.16022
-1.23647
-1.32367
-1.42354
-1.53797
-1.66901
-1.81929
-1.99261
-0.715375
-0.717412
-0.723512
-0.732615
-0.745022
-0.760842
-0.780259
-0.803479
-0.830732
-0.862274
-0.898401
-0.939477
-0.985969
-1.0385
-1.09794
-1.16541
-1.24237
-1.3305
-1.43168
-1.54793
-1.68156
-1.8355
-2.01392
-0.715084
-0.717097
-0.723134
-0.732265
-0.744689
-0.760498
-0.779857
-0.802969
-0.830068
-0.861423
-0.897347
-0.938227
-0.984546
-1.03695
-1.09629
-1.16371
-1.24067
-1.32891
-1.43037
-1.54723
-1.682
-1.83784
-2.01927
-0.711576
-0.713599
-0.719507
-0.728569
-0.740888
-0.756539
-0.77567
-0.798477
-0.825192
-0.856088
-0.891494
-0.931806
-0.977519
-1.02927
-1.08793
-1.15461
-1.23074
-1.31807
-1.41859
-1.53457
-1.66864
-1.82416
-2.00581
-0.704917
-0.706972
-0.7127
-0.721604
-0.733697
-0.749043
-0.767772
-0.790066
-0.81615
-0.846293
-0.880835
-0.920171
-0.964796
-1.01534
-1.07264
-1.13779
-1.21217
-1.29746
-1.39566
-1.50907
-1.64036
-1.79294
-1.97147
-0.695199
-0.697297
-0.702802
-0.711465
-0.723218
-0.738116
-0.756267
-0.77784
-0.803046
-0.832116
-0.86544
-0.903379
-0.946411
-0.995148
-1.05039
-1.11317
-1.18482
-1.26685
-1.36126
-1.47031
-1.59659
-1.74341
-1.91536
-0.682542
-0.684675
-0.689918
-0.698267
-0.709573
-0.723887
-0.741292
-0.761943
-0.786055
-0.813678
-0.845463
-0.881586
-0.922521
-0.968851
-1.02132
-1.08088
-1.14874
-1.22637
-1.31557
-1.41845
-1.53749
-1.67576
-1.83756
-0.667088
-0.669221
-0.674174
-0.682148
-0.692909
-0.706515
-0.72301
-0.742522
-0.765232
-0.791331
-0.821169
-0.855057
-0.893412
-0.93676
-0.985777
-1.04132
-1.10446
-1.17653
-1.25915
-1.35421
-1.46393
-1.59102
-1.73929
-0.648979
-0.651064
-0.655698
-0.663266
-0.673399
-0.686192
-0.701629
-0.71984
-0.740969
-0.765212
-0.792833
-0.82413
-0.859472
-0.899323
-0.944276
-0.995072
-1.05265
-1.11817
-1.19301
-1.27881
-1.37744
-1.49115
-1.62308
-0.628329
-0.630351
-0.634642
-0.641811
-0.651238
-0.663137
-0.677404
-0.694158
-0.713526
-0.735678
-0.760826
-0.789226
-0.821191
-0.857111
-0.897483
-0.94293
-0.994239
-1.05238
-1.11849
-1.1939
-1.28012
-1.37886
-1.4925
-0.605246
-0.607281
-0.61119
-0.61802
-0.62664
-0.63762
-0.650603
-0.665771
-0.683227
-0.703107
-0.725576
-0.750838
-0.77914
-0.810789
-0.846181
-0.88581
-0.930307
-0.980446
-1.03713
-1.1014
-1.17438
-1.25727
-1.35168
-0.579877
-0.582162
-0.585538
-0.592207
-0.59979
-0.60995
-0.621531
-0.635006
-0.650435
-0.667911
-0.687552
-0.709503
-0.733942
-0.761089
-0.791229
-0.824729
-0.86206
-0.90381
-0.950663
-1.00339
-1.06276
-1.12957
-1.20476
-0.552344
-0.555473
-0.557765
-0.564897
-0.570965
-0.580308
-0.590479
-0.602208
-0.615539
-0.630528
-0.64725
-0.665792
-0.686258
-0.70878
-0.733533
-0.760753
-0.790758
-0.823959
-0.860842
-0.901949
-0.947799
-0.99884
-1.05554
-0.522345
-0.52802
-0.527828
-0.536888
-0.540136
-0.54903
-0.557799
-0.567747
-0.578942
-0.591409
-0.605178
-0.620282
-0.636753
-0.654635
-0.673998
-0.69495
-0.717662
-0.742377
-0.76941
-0.79912
-0.831842
-0.867821
-0.907249
-0.48906
-0.500774
-0.495599
-0.507521
-0.508892
-0.51664
-0.523877
-0.532006
-0.541052
-0.551001
-0.561839
-0.573543
-0.586079
-0.599409
-0.613504
-0.628353
-0.643985
-0.660492
-0.678031
-0.696816
-0.717063
-0.738929
-0.762527
-0.452635
-0.473362
-0.463034
-0.477075
-0.476686
-0.483366
-0.489037
-0.495344
-0.502263
-0.509739
-0.517717
-0.526122
-0.534859
-0.543819
-0.552882
-0.561931
-0.570868
-0.579642
-0.588265
-0.596825
-0.605457
-0.61431
-0.623555
-0.415459
-0.445878
-0.428798
-0.446351
-0.443739
-0.449491
-0.453599
-0.458103
-0.462943
-0.468028
-0.473261
-0.478522
-0.483665
-0.488518
-0.492886
-0.496563
-0.499343
-0.501047
-0.501552
-0.500826
-0.498936
-0.496042
-0.492415
-0.374738
-0.426128
-0.392737
-0.416367
-0.410857
-0.415409
-0.417908
-0.420611
-0.423434
-0.426238
-0.428882
-0.431205
-0.433017
-0.434097
-0.434196
-0.43304
-0.43034
-0.425811
-0.419213
-0.410399
-0.399357
-0.386258
-0.371554
-0.305379
-0.437676
-0.361292
-0.38808
-0.379292
-0.381491
-0.382221
-0.383127
-0.384025
-0.384699
-0.384953
-0.384586
-0.383376
-0.381073
-0.377395
-0.372029
-0.364631
-0.354849
-0.342347
-0.326852
-0.308213
-0.286493
-0.262343
-0.190268
-0.475297
-0.344222
-0.358286
-0.348443
-0.347427
-0.346431
-0.345723
-0.344888
-0.343636
-0.341728
-0.338939
-0.335032
-0.329747
-0.322797
-0.31386
-0.302589
-0.288612
-0.271557
-0.251065
-0.226824
-0.198568
-0.165871
335.309
480.703
508.327
520.108
898.296
858.461
743.588
694.672
986.771
952.265
854.39
834.364
1023.57
1017.3
940.803
935.801
1058.34
1065.57
1002.44
1007.87
733.286
847.831
945.002
1087.11
18.7958
38.5687
62.3106
99.5424
-1.58811
-1.8766
-2.64996
-2.79653
-1.57522
-1.6126
-2.26078
-2.31942
-1.59966
-1.70955
-2.36456
-2.43649
-1.61409
-1.67036
-2.29379
-2.34966
-1.60306
-1.64612
-2.25439
-2.29549
-1.61489
-1.64025
-2.19988
-2.22926
-1.74306
-1.8454
-1.98329
-2.08437
-1.7732
-1.86114
-1.95498
-2.04964
-1.80258
-1.88402
-1.96958
-2.05746
-1.84
-1.91973
-2.00328
-2.0902
-1.88631
-1.96724
-2.05231
-2.1415
-1.93922
-2.0232
-2.1119
-2.20545
-1.99526
-2.08342
-2.177
-2.27616
-2.0503
-2.1432
-2.24224
-2.34763
-2.1
-2.19772
-2.30231
-2.41403
-2.14005
-2.24224
-2.35205
-2.4698
-2.16631
-2.27225
-2.38654
-2.50961
-2.17491
-2.28346
-2.40103
-2.52816
-2.16243
-2.27195
-2.39096
-2.52015
-2.12618
-2.23459
-2.35264
-2.48118
-2.06495
-2.1697
-2.28397
-2.40859
-1.97843
-2.07692
-2.18437
-2.30142
-1.86807
-1.95777
-2.0554
-2.16125
-1.73697
-1.81581
-1.90116
-1.99295
-1.58963
-1.6563
-1.72788
-1.80401
-1.43128
-1.48535
-1.54277
-1.60303
-1.2671
-1.30894
-1.35278
-1.39811
-1.10167
-1.13221
-1.16373
-1.19577
-0.938662
-0.959145
-0.97991
-1.00059
-0.780878
-0.792617
-0.80423
-0.81545
-0.63042
-0.634608
-0.638473
-0.641855
-0.489104
-0.486692
-0.483958
-0.480978
-0.359854
-0.352032
-0.344109
-0.336383
-0.244236
-0.232239
-0.219984
-0.207283
-0.13746
-0.11763
-0.096573
-0.075072
248.341
39.5821
40.1898
39.9004
40.1609
40.3707
40.319
40.2278
40.185
40.1094
40.018
39.9008
39.7587
39.6086
39.4663
39.3453
39.2564
39.2079
39.1999
631.471
609.543
529.695
227.747
65.1832
45.0884
40.1039
40.327
40.3109
40.1579
40.0425
39.9113
39.7418
39.5542
39.3718
39.2147
39.1013
39.044
39.0405
806.083
795.48
788.142
775.697
762.777
557.308
176.682
50.8139
40.3325
40.1775
40.0847
39.9165
39.7037
39.4692
39.236
39.0301
38.8809
38.81
38.8122
923.126
911.856
907.39
907.148
910.133
910.01
908.062
696.499
188.045
40.0195
40.0864
39.9373
39.6155
39.317
39.034
38.7695
38.5724
38.4818
38.4912
1011.23
1008.85
1010.21
1012.42
1016.51
1022.49
1031.57
1037.2
988.343
452.977
49.5545
39.714
39.4705
39.064
38.7235
38.3974
38.1426
38.0268
38.0452
1128.52
1123.65
1121.61
1128.57
1129.31
1133.7
1139.83
1146.42
1156.7
1137.35
566.667
52.8318
39.1698
38.7455
38.2658
37.8489
37.5391
37.4003
37.4317
156.687
213.994
380.933
783.187
1045.17
1131.86
1206.79
1263.27
1268.01
1274.54
1226.92
493.509
39.9942
38.5958
37.7568
37.0537
36.68
36.5423
36.5981
-3.13888
-3.30095
-3.37595
-3.55423
-3.77483
-3.87396
204.865
860.239
1318.22
1392.57
1397.28
1207.76
269.539
37.2291
37.0285
35.868
35.4406
35.3792
35.4856
-2.41499
-2.53395
-2.62644
-2.6953
-2.73362
-2.72787
-3.05294
-3.87633
66.7946
916.134
1509.03
1520.32
854.344
54.3748
35.6456
34.0872
33.742
33.8577
34.0449
-2.54405
-2.68328
-2.79838
-2.89719
-2.96837
-2.97675
-2.9189
-2.8801
-3.28576
50.0104
1078.45
1623.27
1301.34
219.8
32.9787
31.6481
31.6492
31.9675
32.2524
-2.44734
-2.57449
-2.68676
-2.783
-2.85878
-2.90826
-2.94267
-2.9904
-2.85873
-3.26101
420.717
1614.72
1540.3
455.868
27.7439
28.7919
29.2389
29.7331
30.1308
-2.37447
-2.49926
-2.61785
-2.72007
-2.7995
-2.85058
-2.87582
-2.87879
-2.77783
-2.8201
90.9586
1437.27
1632.93
760.353
26.4359
26.1775
26.717
27.2942
27.7693
-2.30783
-2.44217
-2.57175
-2.68365
-2.7689
-2.82032
-2.83815
-2.83232
-2.78838
-2.66236
-4.1711
1185.53
1724.16
780.235
23.9628
23.7586
24.229
24.7953
25.2775
-2.22694
-2.39651
-2.54683
-2.67406
-2.76829
-2.82034
-2.82807
-2.8012
-2.73443
-2.47065
-3.15732
873.918
1659.46
677.345
21.2697
21.5196
21.8321
22.3037
22.7351
-2.1991
-2.38625
-2.55452
-2.69773
-2.80181
-2.85308
-2.84531
-2.7846
-2.67132
-2.35807
-3.19838
971.717
1165.29
266.675
18.4253
19.4224
19.4958
19.8259
20.1823
-2.20521
-2.40585
-2.59337
-2.75492
-2.87054
-2.92085
-2.89559
-2.79797
-2.62212
-2.19081
2.92228
1310.07
1014.09
99.924
16.9675
17.4322
17.1713
17.352
17.6295
-2.23952
-2.45429
-2.66264
-2.84475
-2.97362
-3.02429
-2.98655
-2.87227
-2.7086
-2.22672
393.042
1459.08
1432.69
383.416
14.6997
14.9406
14.5568
14.7714
15.0491
-2.29639
-2.5278
-2.75887
-2.96319
-3.10599
-3.15712
-3.10934
-2.9896
-2.88702
-2.46367
533.287
1560.32
1553.43
861.629
15.4719
10.6639
11.2648
11.9658
12.422
-2.36921
-2.62002
-2.87528
-3.1022
-3.25728
-3.30641
-3.24496
-3.10854
-3.02917
-3.09023
106.779
1151.4
1458.95
603.903
4.35785
6.84351
7.95809
9.19118
9.89365
-2.45098
-2.72289
-3.00254
-3.25035
-3.41352
-3.45476
-3.36949
-3.18695
-3.01442
-3.21457
-2.72233
67.0764
150.555
114.584
12.4471
3.73493
5.44586
6.85041
7.76957
-2.53462
-2.82814
-3.13154
-3.39784
-3.56535
-3.5943
-3.48512
-3.25285
-2.91221
-2.62876
-2.41492
-1.53404
0.490396
0.556279
3.28882
1.31849
3.66903
5.14468
6.14078
-2.61345
-2.92838
-3.25565
-3.54142
-3.71695
-3.74835
-3.65002
-3.42826
-3.011
-2.60591
-2.00574
-0.522844
0.384695
0.423919
0.0162579
1.16118
3.05488
4.18305
4.96682
-2.68124
-3.01724
-3.36998
-3.68275
-3.87827
-3.94248
-3.91705
-3.82119
-3.50039
-2.6528
-0.379241
0.691262
1.71534
1.79682
1.69762
2.29279
3.2018
3.76696
4.15117
-2.73196
-3.08854
-3.46966
-3.81803
-4.04983
-4.17303
-4.25807
-4.03046
93.7396
590.991
178.529
1.79377
3.60999
3.37199
3.09398
3.09603
3.30658
3.48768
3.55065
-2.75924
-3.13496
-3.54754
-3.94293
-4.2361
-4.42586
-4.59799
-4.04961
640.876
894.749
788.633
76.8585
4.1979
4.39901
3.57879
3.17537
3.0795
3.10827
3.03041
-2.75631
-3.14704
-3.59074
-4.04378
-4.42105
-4.70878
-4.92866
-4.61476
854.189
922.125
915.992
398.111
3.63834
4.02367
2.98733
2.63708
2.55747
2.59403
2.52942
-2.71721
-3.11494
-3.58152
-4.09317
-4.57231
-4.96214
-5.2958
-5.35278
620.17
951.456
945.588
752.207
26.386
1.55667
1.61196
1.69974
1.85049
2.00042
2.04263
-2.63797
-3.03156
-3.50855
-4.05723
-4.623
-5.14079
-5.56275
-5.85353
171.326
989.173
985.868
601.611
7.22687
-1.53247
-0.138303
0.629114
1.10613
1.41666
1.59022
-2.51679
-2.8915
-3.35658
-3.91692
-4.54248
-5.16853
-5.72593
-6.22387
-6.53517
382.542
497.342
117.975
-5.07793
-3.07322
-1.374
-0.182494
0.507194
0.939176
1.20128
-2.35557
-2.69608
-3.12357
-3.65654
-4.29137
-4.98518
-5.66624
-6.30726
-7.04132
-8.16908
-7.49376
-6.81621
-6.0802
-3.69776
-1.85662
-0.574171
0.155592
0.625521
0.895731
-2.1607
-2.45415
-2.82123
-3.28469
-3.85677
-4.52117
-5.23088
-5.94561
-6.61112
-7.07375
-7.17351
-6.87985
-5.51165
-3.36391
-1.72855
-0.62629
0.0308945
0.463121
0.673047
-1.94216
-2.18113
-2.47455
-2.84116
-3.29509
-3.83382
-4.43478
-5.0671
-5.64237
-5.93847
-5.86626
-5.38364
-4.09767
-2.49722
-1.29998
-0.474255
0.0556057
0.40176
0.515885
-1.71131
-1.8947
-2.11274
-2.37685
-2.69576
-3.06891
-3.48123
-3.89669
-4.23078
-4.35406
-4.1402
-3.59641
-2.66532
-1.62607
-0.832654
-0.247361
0.146197
0.389439
0.406105
-1.47849
-1.6105
-1.76043
-1.93317
-2.13166
-2.35405
-2.58817
-2.8025
-2.94086
-2.92437
-2.69452
-2.25315
-1.62963
-0.974967
-0.444708
-0.032978
0.242516
0.389943
0.332424
-1.25168
-1.33968
-1.43357
-1.53403
-1.6401
-1.74865
-1.85163
-1.93069
-1.95408
-1.88226
-1.68943
-1.37264
-0.957648
-0.527056
-0.157287
0.132294
0.315136
0.386878
0.286689
-1.036
-1.08847
-1.13945
-1.18777
-1.23067
-1.26492
-1.28709
-1.2893
-1.25679
-1.17059
-1.01698
-0.792774
-0.512641
-0.219941
0.0409839
0.24143
0.354617
0.374955
0.259811
-0.834157
-0.859065
-0.878814
-0.892513
-0.897179
-0.889875
-0.870219
-0.835101
-0.779144
-0.694065
-0.572343
-0.411393
-0.219093
-0.0182275
0.163296
0.297462
0.360549
0.351618
0.240866
-0.647155
-0.651076
-0.648549
-0.641322
-0.62693
-0.602349
-0.566188
-0.51859
-0.458273
-0.382495
-0.287611
-0.171732
-0.0389463
0.0980547
0.220937
0.306682
0.336358
0.314574
0.219156
-0.476176
-0.464339
-0.444761
-0.426252
-0.407119
-0.380253
-0.344413
-0.299899
-0.24719
-0.186059
-0.115298
-0.0339868
0.0556391
0.146194
0.225788
0.277629
0.287653
0.263553
0.187785
-0.324269
-0.300984
-0.264469
-0.241602
-0.229058
-0.208299
-0.182323
-0.150803
-0.113638
-0.0712171
-0.023664
0.028935
0.0850661
0.140487
0.188158
0.217203
0.217698
0.19753
0.142656
-0.184992
-0.147465
-0.0806652
-0.0675095
-0.0713316
-0.0636565
-0.0577123
-0.0490971
-0.0354604
-0.0165648
0.00701309
0.0343991
0.0642616
0.0942757
0.120897
0.13795
0.138309
0.12677
0.0904039
-0.0387706
0.0450179
0.212985
0.251241
0.138569
0.0759814
0.0421919
0.0197356
0.00420135
-0.00601839
-0.0119224
-0.0140226
-0.0127934
-0.00873197
-0.00245627
0.00422594
0.00844384
0.0138959
0.0139514
)
;

boundaryField
{
    leftWall
    {
        type            fixedFluxPressure;
        gradient        uniform 0;
        value           nonuniform List<scalar> 
50
(
975.347
974.698
972.815
970.767
968.649
966.368
963.921
961.396
957.291
952.559
950.419
849.587
109.83
-0.582153
-0.318147
-0.370782
-0.362479
-0.403863
-0.436386
-0.471667
-0.50643
-0.539921
-0.571276
-0.599974
-0.625707
-0.648303
-0.667675
-0.683805
-0.696668
-0.706147
-0.712402
-0.715375
-0.715084
-0.711576
-0.704917
-0.695199
-0.682542
-0.667088
-0.648979
-0.628329
-0.605246
-0.579877
-0.552344
-0.522345
-0.48906
-0.452635
-0.415459
-0.374738
-0.305379
-0.190268
)
;
    }
    rightWall
    {
        type            fixedFluxPressure;
        gradient        uniform 0;
        value           nonuniform List<scalar> 
50
(
39.4241
39.4219
39.4139
39.4005
39.3812
39.3551
39.3216
39.2798
39.1999
39.0405
38.8122
38.4912
38.0452
37.4317
36.5981
35.4856
34.0449
32.2524
30.1308
27.7693
25.2775
22.7351
20.1823
17.6295
15.0491
12.422
9.89365
7.76957
6.14078
4.96682
4.15117
3.55065
3.03041
2.52942
2.04263
1.59022
1.20128
0.895731
0.673047
0.515885
0.406105
0.332424
0.286689
0.259811
0.240866
0.219156
0.187785
0.142656
0.0904039
0.0139514
)
;
    }
    lowerWall
    {
        type            fixedFluxPressure;
        gradient        uniform 0;
        value           nonuniform List<scalar> 
62
(
975.347
975.453
985.882
1000.23
1015.41
1028.82
1040.28
1049.71
1057.3
1063.45
1068.63
1073.5
1078.93
1086.09
1096.65
1113.28
1138.66
1175.16
1223.5
1276.45
1332.56
1326.76
1373.07
1373.07
1371.51
1383.72
1403.76
1418.09
1417.66
1380.91
1303.13
335.309
480.703
508.327
520.108
40.1012
40.1058
40.1123
40.1161
40.137
40.1182
40.2145
40.0835
40.1012
40.068
40.0519
40.0452
40.0721
40.1148
40.1492
40.157
40.1328
40.0769
39.9952
39.897
39.7928
39.6918
39.6014
39.5269
39.4717
39.4371
39.4241
)
;
    }
    atmosphere
    {
        type            totalPressure;
        rho             rho;
        psi             none;
        gamma           1;
        p0              uniform 0;
        value           nonuniform List<scalar> 
46
(
-0.216833
-0.372549
-0.335527
-0.335621
-0.331137
-0.329536
-0.328241
-0.326992
-0.32545
-0.323357
-0.320485
-0.316612
-0.311505
-0.304912
-0.296556
-0.286139
-0.273343
-0.257853
-0.23938
-0.217707
-0.192756
-0.164691
-0.134067
-0.109999
-0.0946449
-0.0793703
-0.0644453
-0.0416227
-0.0163552
-0.00402737
0
0
0
0
0
0
0
0
0
0
0
0
0
0
0
0
)
;
    }
    defaultFaces
    {
        type            empty;
    }
    porous_half0
    {
        type            porousBafflePressure;
        patchType       cyclic;
        jump            nonuniform List<scalar> 
13
(
-72.4629
-72.5545
-72.6578
-72.6688
-72.6688
-57.5953
-3.6578
-0.56889
-0.570039
-0.569013
-0.568888
-0.568888
-0.568888
)
;
        value           nonuniform List<scalar> 
13
(
530.746
837.302
939.656
1015.39
1070.34
925.214
52.2686
-1.97884
-1.65167
-1.75255
-1.69763
-1.66581
-1.63562
)
;
        D               constant 242282;
        I               constant 0.5;
        length          0.15;
        uniformJump     1;
    }
    porous_half1
    {
        type            porousBafflePressure;
        patchType       cyclic;
        value           nonuniform List<scalar> 
13
(
458.283
764.747
866.999
942.716
997.672
867.619
48.6108
-2.54773
-2.22171
-2.32156
-2.26652
-2.2347
-2.20451
)
;
        D               constant 242282;
        I               constant 0.5;
        length          0.15;
        uniformJump     1;
    }
}


// ************************************************************************* //
