/*--------------------------------*- C++ -*----------------------------------*\
| =========                 |                                                 |
| \\      /  F ield         | OpenFOAM: The Open Source CFD Toolbox           |
|  \\    /   O peration     | Version:  2212                                  |
|   \\  /    A nd           | Website:  www.openfoam.com                      |
|    \\/     M anipulation  |                                                 |
\*---------------------------------------------------------------------------*/
FoamFile
{
    version     2.0;
    format      ascii;
    arch        "LSB;label=32;scalar=64";
    class       surfaceScalarField;
    location    "0.35";
    object      phi;
}
// * * * * * * * * * * * * * * * * * * * * * * * * * * * * * * * * * * * * * //

dimensions      [0 3 -1 0 0 0 0];

oriented        oriented;

internalField   nonuniform List<scalar> 
4419
(
-5.47685e-06
5.47685e-06
-6.36911e-06
8.92261e-07
-3.84114e-06
-2.52797e-06
1.65127e-07
-4.00627e-06
4.7315e-06
-4.56637e-06
9.50229e-06
-4.77079e-06
1.42661e-05
-4.76378e-06
1.89201e-05
-4.654e-06
2.34058e-05
-4.48569e-06
2.76724e-05
-4.26668e-06
3.16624e-05
-3.98999e-06
3.53013e-05
-3.63891e-06
3.84833e-05
-3.18201e-06
4.10485e-05
-2.56513e-06
4.27445e-05
-1.69604e-06
4.30426e-05
-2.9809e-07
4.10516e-05
1.99096e-06
3.59227e-05
5.12895e-06
2.68549e-05
9.06777e-06
1.39794e-05
1.28755e-05
-2.08918e-06
1.60686e-05
-1.19714e-05
9.88219e-06
-1.19714e-05
-3.44682e-06
8.92367e-06
-2.5075e-06
-4.70609e-08
3.20485e-07
-5.35595e-06
4.19268e-06
-7.87846e-06
8.60539e-06
-8.97908e-06
1.31872e-05
-9.35256e-06
1.77644e-05
-9.34098e-06
2.22377e-05
-9.12729e-06
2.65413e-05
-8.7893e-06
3.06191e-05
-8.34454e-06
3.44103e-05
-7.78118e-06
3.78391e-05
-7.06766e-06
4.0801e-05
-6.14392e-06
4.31522e-05
-4.91638e-06
4.46908e-05
-3.23465e-06
4.52158e-05
-8.23077e-07
4.44524e-05
2.75439e-06
4.16801e-05
7.90123e-06
3.58326e-05
1.49153e-05
2.59431e-05
2.2765e-05
1.2394e-05
2.96177e-05
8.41884e-07
2.14343e-05
-1.11295e-05
-1.35975e-06
1.02834e-05
2.47923e-07
-1.65473e-06
3.20038e-06
-8.30841e-06
7.02386e-06
-1.1702e-05
1.12617e-05
-1.32169e-05
1.56352e-05
-1.3726e-05
1.99946e-05
-1.37004e-05
2.42494e-05
-1.33821e-05
2.83358e-05
-1.28758e-05
3.21979e-05
-1.22066e-05
3.57748e-05
-1.1358e-05
3.89923e-05
-1.02851e-05
4.17513e-05
-8.90292e-06
4.39205e-05
-7.08563e-06
4.53227e-05
-4.63683e-06
4.57611e-05
-1.26151e-06
4.50244e-05
3.49113e-06
4.27824e-05
1.01432e-05
3.85565e-05
1.91411e-05
3.16333e-05
2.96882e-05
2.18205e-05
3.94305e-05
1.00218e-05
3.3233e-05
-1.10773e-06
3.8019e-07
9.90323e-06
2.40609e-06
-3.68064e-06
5.58111e-06
-1.14834e-05
9.38769e-06
-1.55085e-05
1.34885e-05
-1.73177e-05
1.76735e-05
-1.79111e-05
2.18241e-05
-1.7851e-05
2.58648e-05
-1.74228e-05
2.97389e-05
-1.67498e-05
3.3393e-05
-1.58608e-05
3.67686e-05
-1.47337e-05
3.97949e-05
-1.33114e-05
4.23796e-05
-1.14876e-05
4.44046e-05
-9.11059e-06
4.572e-05
-5.95222e-06
4.61585e-05
-1.70007e-06
4.55553e-05
4.09434e-06
4.37294e-05
1.19691e-05
4.04652e-05
2.24054e-05
3.53103e-05
3.48431e-05
2.77621e-05
4.69788e-05
1.62342e-05
4.47609e-05
1.51264e-05
1.62603e-06
8.2772e-06
4.1774e-06
-6.23201e-06
7.60128e-06
-1.49073e-05
1.14448e-05
-1.93521e-05
1.545e-05
-2.13229e-05
1.94711e-05
-2.19321e-05
2.34271e-05
-2.1807e-05
2.72636e-05
-2.12592e-05
3.09342e-05
-2.04205e-05
3.43912e-05
-1.93177e-05
3.75797e-05
-1.79222e-05
4.04339e-05
-1.61656e-05
4.28698e-05
-1.39236e-05
4.47837e-05
-1.10245e-05
4.60511e-05
-7.21955e-06
4.65398e-05
-2.18883e-06
4.61347e-05
4.49951e-06
4.4738e-05
1.33658e-05
4.22484e-05
2.4895e-05
3.83219e-05
3.87696e-05
3.22225e-05
5.30782e-05
2.10326e-05
5.59509e-05
3.6159e-05
2.4103e-06
5.8669e-06
5.59243e-06
-9.41414e-06
9.32467e-06
-1.86395e-05
1.32518e-05
-2.32792e-05
1.71935e-05
-2.52647e-05
2.10703e-05
-2.58089e-05
2.4845e-05
-2.55817e-05
2.84881e-05
-2.49023e-05
3.19662e-05
-2.38986e-05
3.52383e-05
-2.25899e-05
3.82547e-05
-2.09386e-05
4.09555e-05
-1.88663e-05
4.32662e-05
-1.62344e-05
4.50978e-05
-1.28561e-05
4.63494e-05
-8.47109e-06
4.6924e-05
-2.76345e-06
4.67546e-05
4.66894e-06
4.58084e-05
1.43119e-05
4.40563e-05
2.66471e-05
4.12095e-05
4.16164e-05
3.63443e-05
5.79433e-05
2.55653e-05
6.67299e-05
6.17243e-05
2.93824e-06
2.92866e-06
6.73808e-06
-1.3214e-05
1.08152e-05
-2.27167e-05
1.48533e-05
-2.73173e-05
1.87473e-05
-2.91586e-05
2.24891e-05
-2.95507e-05
2.60908e-05
-2.91834e-05
2.95502e-05
-2.83617e-05
3.2847e-05
-2.71954e-05
3.59472e-05
-2.56901e-05
3.88067e-05
-2.3798e-05
4.1372e-05
-2.14317e-05
4.3579e-05
-1.84413e-05
4.53531e-05
-1.46303e-05
4.66154e-05
-9.73333e-06
4.7302e-05
-3.45007e-06
4.73931e-05
4.57783e-06
4.692e-05
1.4785e-05
4.5933e-05
2.76342e-05
4.42397e-05
4.33097e-05
4.09175e-05
6.12655e-05
3.1049e-05
7.65984e-05
9.27733e-05
3.34685e-06
-4.18188e-07
7.72124e-06
-1.75884e-05
1.21485e-05
-2.71439e-05
1.62962e-05
-3.14651e-05
2.01339e-05
-3.29963e-05
2.37355e-05
-3.31523e-05
2.71661e-05
-3.2614e-05
3.04489e-05
-3.16445e-05
3.35749e-05
-3.03214e-05
3.6516e-05
-2.86312e-05
3.92329e-05
-2.65148e-05
4.16792e-05
-2.3878e-05
4.3801e-05
-2.0563e-05
4.55381e-05
-1.63674e-05
4.68311e-05
-1.10264e-05
4.76464e-05
-4.26542e-06
4.80102e-05
4.21405e-06
4.8022e-05
1.47732e-05
4.78422e-05
2.78139e-05
4.74885e-05
4.36634e-05
4.62915e-05
6.24625e-05
3.79461e-05
8.49438e-05
0.000130719
-1.61675e-06
1.61675e-06
-1.46279e-05
1.30112e-05
-2.28502e-05
8.22229e-06
-2.52043e-05
2.35406e-06
-2.1952e-05
-3.25231e-06
-1.53375e-05
-6.61458e-06
-7.01816e-06
-8.3193e-06
1.76776e-06
-8.78592e-06
1.0132e-05
-8.36422e-06
1.73255e-05
-7.19352e-06
2.27444e-05
-5.41888e-06
2.59593e-05
-3.21493e-06
2.66897e-05
-7.30436e-07
2.49591e-05
1.73061e-06
2.12296e-05
3.7295e-06
1.60996e-05
5.13001e-06
1.02066e-05
5.89296e-06
4.43595e-06
5.77065e-06
4.43595e-06
-6.58691e-06
8.20362e-06
-1.88828e-05
2.53071e-05
-2.46441e-05
1.39836e-05
-2.50941e-05
2.80398e-06
-2.14402e-05
-6.90624e-06
-1.47862e-05
-1.32686e-05
-6.51918e-06
-1.65863e-05
2.16746e-06
-1.74726e-05
1.04263e-05
-1.6623e-05
1.75745e-05
-1.43418e-05
2.30511e-05
-1.08955e-05
2.64313e-05
-6.59516e-06
2.75354e-05
-1.83453e-06
2.63672e-05
2.89878e-06
2.30486e-05
7.04806e-06
1.7983e-05
1.01956e-05
1.18283e-05
1.20477e-05
5.47769e-06
1.21212e-05
9.91364e-06
-8.62609e-06
1.68297e-05
-1.97005e-05
3.63816e-05
-2.41751e-05
1.84581e-05
-2.41493e-05
2.77814e-06
-2.05258e-05
-1.05297e-05
-1.39037e-05
-1.98907e-05
-5.70902e-06
-2.4781e-05
2.87002e-06
-2.60516e-05
1.10166e-05
-2.47696e-05
1.80812e-05
-2.14064e-05
2.35331e-05
-1.63473e-05
2.69609e-05
-1.0023e-05
2.81197e-05
-2.99338e-06
2.69645e-05
4.05402e-06
2.36523e-05
1.03603e-05
1.86052e-05
1.52426e-05
1.2475e-05
1.81779e-05
6.0244e-06
1.85718e-05
1.5938e-05
-8.93029e-06
2.57599e-05
-1.95836e-05
4.70349e-05
-2.32174e-05
2.20919e-05
-2.27473e-05
2.30801e-06
-1.92002e-05
-1.40768e-05
-1.26578e-05
-2.64331e-05
-4.55396e-06
-3.28848e-05
3.91597e-06
-3.45215e-05
1.19843e-05
-3.2838e-05
1.90029e-05
-2.8425e-05
2.44428e-05
-2.17872e-05
2.78945e-05
-1.34747e-05
2.90958e-05
-4.19464e-06
2.79629e-05
5.18688e-06
2.46313e-05
1.36919e-05
1.95105e-05
2.03634e-05
1.32499e-05
2.44386e-05
6.551e-06
2.52707e-05
2.2489e-05
-7.20691e-06
3.29668e-05
-1.81671e-05
5.79951e-05
-2.099e-05
2.49148e-05
-1.99396e-05
1.2576e-06
-1.66508e-05
-1.73656e-05
-1.04478e-05
-3.26362e-05
-2.6723e-06
-4.06603e-05
5.51036e-06
-4.27042e-05
1.34287e-05
-4.07563e-05
2.03903e-05
-3.53866e-05
2.5821e-05
-2.72179e-05
2.92824e-05
-1.69361e-05
3.04934e-05
-5.40563e-06
2.93468e-05
6.33344e-06
2.59454e-05
1.70933e-05
2.0666e-05
2.56429e-05
1.41453e-05
3.09592e-05
7.0728e-06
3.23433e-05
2.95618e-05
-4.94188e-06
3.79087e-05
-1.48327e-05
6.78859e-05
-1.57893e-05
2.58715e-05
-1.39583e-05
-5.73434e-07
-1.13175e-05
-2.00064e-05
-6.13108e-06
-3.78226e-05
6.66927e-07
-4.74583e-05
8.06638e-06
-5.01036e-05
1.55473e-05
-4.82372e-05
2.23256e-05
-4.21649e-05
2.77024e-05
-3.25947e-05
3.11461e-05
-2.03799e-05
3.23273e-05
-6.5868e-06
3.1115e-05
7.54575e-06
2.75798e-05
2.06285e-05
2.20575e-05
3.11652e-05
1.51665e-05
3.78502e-05
7.61731e-06
3.98925e-05
3.71791e-05
3.70824e-06
3.42004e-05
-6.20255e-06
7.77967e-05
-4.60209e-06
2.4271e-05
-1.89088e-06
-3.28465e-06
-8.04463e-07
-2.10928e-05
2.1349e-06
-4.0762e-05
6.77083e-06
-5.20942e-05
1.23158e-05
-5.56486e-05
1.87112e-05
-5.46326e-05
2.49732e-05
-4.84269e-05
3.0157e-05
-3.77785e-05
3.35217e-05
-2.37446e-05
3.46201e-05
-7.68511e-06
3.32793e-05
8.88657e-06
2.95396e-05
2.43682e-05
2.36949e-05
3.70098e-05
1.6339e-05
4.52061e-05
8.21701e-06
4.80145e-05
4.53961e-05
1.51848e-05
1.90157e-05
1.04156e-05
8.25659e-05
1.72105e-05
1.74761e-05
1.98981e-05
-5.97223e-06
1.72991e-05
-1.84938e-05
1.64968e-05
-3.99597e-05
1.73637e-05
-5.2961e-05
1.93255e-05
-5.76104e-05
2.35722e-05
-5.88793e-05
2.86648e-05
-5.35196e-05
3.33365e-05
-4.24501e-05
3.64834e-05
-2.68915e-05
3.74138e-05
-8.61548e-06
3.58636e-05
1.04368e-05
3.18373e-05
2.83945e-05
2.55924e-05
4.32548e-05
1.76893e-05
5.31091e-05
8.89764e-06
5.68062e-05
5.42938e-05
8.41486e-06
-8.83304e-06
1.96099e-05
-2.87834e-05
3.00755e-05
-3.76096e-05
3.90675e-05
-4.04571e-05
4.68885e-05
-4.08173e-05
5.40089e-05
-4.02727e-05
6.07266e-05
-3.93317e-05
6.71474e-05
-3.80653e-05
7.32695e-05
-3.64435e-05
7.90428e-05
-3.44046e-05
8.43972e-05
-3.18693e-05
8.92566e-05
-2.87374e-05
9.35412e-05
-2.48476e-05
9.7169e-05
-1.99952e-05
0.000100069
-1.39261e-05
0.000102252
-6.44899e-06
0.000103916
2.54988e-06
0.00010549
1.31997e-05
0.000107753
2.55509e-05
0.000111797
3.96198e-05
0.000119184
5.50747e-05
0.000133098
7.10304e-05
9.68853e-05
0.000166932
1.07917e-05
-1.96248e-05
2.49551e-05
-4.29468e-05
3.62472e-05
-4.89017e-05
4.4537e-05
-4.87469e-05
5.1228e-05
-4.75082e-05
5.72959e-05
-4.63407e-05
6.31353e-05
-4.51711e-05
6.88121e-05
-4.3742e-05
7.42824e-05
-4.19139e-05
7.94802e-05
-3.96023e-05
8.43393e-05
-3.67284e-05
8.8809e-05
-3.3207e-05
9.28557e-05
-2.88943e-05
9.64513e-05
-2.35908e-05
9.95647e-05
-1.70395e-05
0.000102251
-9.13567e-06
0.00010484
-3.88406e-08
0.000107794
1.02458e-05
0.00011207
2.12744e-05
0.000118898
3.27926e-05
0.000129715
4.42577e-05
0.000145962
5.47833e-05
6.67831e-05
0.000176064
1.55622e-05
-3.51869e-05
3.37277e-05
-6.11123e-05
4.31385e-05
-5.83125e-05
4.88824e-05
-5.44907e-05
5.37718e-05
-5.23976e-05
5.87275e-05
-5.12964e-05
6.38063e-05
-5.02499e-05
6.88638e-05
-4.87995e-05
7.37784e-05
-4.68284e-05
7.8465e-05
-4.42889e-05
8.28608e-05
-4.11243e-05
8.69382e-05
-3.72844e-05
9.07155e-05
-3.26716e-05
9.42306e-05
-2.71059e-05
9.74804e-05
-2.02892e-05
0.000100539
-1.21943e-05
0.000103651
-3.1509e-06
0.000107353
6.54357e-06
0.000112364
1.62638e-05
0.000119597
2.55596e-05
0.000129634
3.42204e-05
0.000142837
4.15805e-05
4.66843e-05
0.000162936
2.75275e-05
-6.27145e-05
4.59912e-05
-7.9576e-05
4.79981e-05
-6.03194e-05
5.01695e-05
-5.66622e-05
5.38993e-05
-5.61275e-05
5.84005e-05
-5.57976e-05
6.30735e-05
-5.49229e-05
6.76703e-05
-5.33963e-05
7.20887e-05
-5.12468e-05
7.62672e-05
-4.84674e-05
8.01594e-05
-4.50165e-05
8.37533e-05
-4.08783e-05
8.71053e-05
-3.60236e-05
9.03451e-05
-3.03457e-05
9.3555e-05
-2.34991e-05
9.68994e-05
-1.55387e-05
0.00010053
-6.7811e-06
0.000104815
2.25766e-06
0.000110408
1.06711e-05
0.0001178
1.81674e-05
0.000127063
2.49581e-05
0.000138086
3.05568e-05
3.34449e-05
0.000151326
4.98487e-05
-0.000112563
5.47404e-05
-8.44677e-05
4.57915e-05
-5.13704e-05
4.73299e-05
-5.82006e-05
5.25759e-05
-6.13735e-05
5.68169e-05
-6.00386e-05
6.1311e-05
-5.9417e-05
6.54514e-05
-5.75367e-05
6.93058e-05
-5.51011e-05
7.28715e-05
-5.20332e-05
7.61119e-05
-4.82569e-05
7.90142e-05
-4.37806e-05
8.16458e-05
-3.86553e-05
8.42668e-05
-3.29667e-05
8.7133e-05
-2.63653e-05
9.07754e-05
-1.9181e-05
9.57654e-05
-1.17711e-05
0.000102006
-3.98344e-06
0.000108973
3.70436e-06
0.000116626
1.05142e-05
0.000125056
1.65284e-05
0.000134561
2.10524e-05
2.30682e-05
0.000144937
3.31641e-05
-0.000145727
2.87712e-05
-8.00748e-05
3.58212e-05
-5.84204e-05
4.26361e-05
-6.50156e-05
4.98824e-05
-6.86198e-05
5.70023e-05
-6.71585e-05
6.15014e-05
-6.39161e-05
6.49628e-05
-6.09981e-05
6.79905e-05
-5.81288e-05
7.07195e-05
-5.47622e-05
7.31594e-05
-5.06967e-05
7.5272e-05
-4.58933e-05
7.70243e-05
-4.04075e-05
7.85443e-05
-3.44867e-05
8.04709e-05
-2.82919e-05
8.35215e-05
-2.22316e-05
8.84359e-05
-1.66855e-05
9.59454e-05
-1.14929e-05
0.000105508
-5.85843e-06
0.00011474
1.28201e-06
0.000124612
6.65686e-06
0.000135384
1.02801e-05
1.26844e-05
0.000145768
-1.60929e-05
-0.000129634
1.26671e-07
-9.62943e-05
2.06359e-05
-7.89296e-05
3.43634e-05
-7.87431e-05
4.43026e-05
-7.8559e-05
5.32618e-05
-7.61177e-05
6.19318e-05
-7.2586e-05
6.9866e-05
-6.89324e-05
7.69275e-05
-6.51903e-05
8.3252e-05
-6.10868e-05
8.89738e-05
-5.64184e-05
9.41746e-05
-5.10942e-05
9.8876e-05
-4.51089e-05
0.000103037
-3.86478e-05
0.000106676
-3.19312e-05
0.000109847
-2.54028e-05
0.000112578
-1.94162e-05
0.000114883
-1.37978e-05
0.000115758
-6.73319e-06
0.000116598
4.41917e-07
0.000123579
-3.24271e-07
0.000136342
-2.48237e-06
-1.09826e-06
0.000150124
-1.30565e-05
-0.000116578
-2.57674e-08
-0.000109325
1.81733e-05
-9.71287e-05
3.19441e-05
-9.2514e-05
4.28289e-05
-8.94437e-05
5.26224e-05
-8.59113e-05
6.19735e-05
-8.19371e-05
7.08444e-05
-7.78033e-05
7.91927e-05
-7.35386e-05
8.70973e-05
-6.89914e-05
9.46914e-05
-6.40125e-05
0.00010212
-5.85223e-05
0.000109504
-5.2493e-05
0.000116905
-4.60495e-05
0.000124323
-3.93487e-05
0.000131507
-3.2587e-05
0.000137769
-2.56785e-05
0.00014201
-1.80383e-05
0.000145032
-9.75527e-06
0.000149966
-4.49244e-06
0.000156874
-7.23243e-06
0.000164741
-1.03485e-05
-6.89895e-06
0.000170541
5.9736e-07
-0.000117175
7.54477e-06
-0.000116272
1.91668e-05
-0.000108751
3.02699e-05
-0.000103617
4.03218e-05
-9.94957e-05
4.98222e-05
-9.54117e-05
5.90642e-05
-9.11791e-05
6.80914e-05
-8.68305e-05
7.69071e-05
-8.23542e-05
8.55649e-05
-7.76492e-05
9.41642e-05
-7.26119e-05
0.000102828
-6.71857e-05
0.000111664
-6.1329e-05
0.000120725
-5.51108e-05
0.000129978
-4.86023e-05
0.000139274
-4.1883e-05
0.00014852
-3.49245e-05
0.000158127
-2.76449e-05
0.000169031
-2.06595e-05
0.000180744
-1.62052e-05
0.000188847
-1.5335e-05
0.000193249
-1.47506e-05
-1.27038e-05
0.000199054
2.51411e-06
-0.000119689
9.65842e-06
-0.000123417
1.85713e-05
-0.000117664
2.76702e-05
-0.000112716
3.65605e-05
-0.000108386
4.53364e-05
-0.000104188
5.41002e-05
-9.99429e-05
6.28775e-05
-9.56079e-05
7.16784e-05
-9.11551e-05
8.05402e-05
-8.6511e-05
8.95342e-05
-8.16059e-05
9.8756e-05
-7.64074e-05
0.000108299
-7.08717e-05
0.00011823
-6.50421e-05
0.000128575
-5.89473e-05
0.000139333
-5.2641e-05
0.000150584
-4.61756e-05
0.000162592
-3.96528e-05
0.000175498
-3.35656e-05
0.000188272
-2.89789e-05
0.000199347
-2.64106e-05
0.000209209
-2.46122e-05
-2.29342e-05
0.000219439
3.88464e-06
-0.000123574
9.82708e-06
-0.000129359
1.68056e-05
-0.000124642
2.42991e-05
-0.00012021
3.20214e-05
-0.000116108
3.99204e-05
-0.000112087
4.8003e-05
-0.000108026
5.62698e-05
-0.000103875
6.47256e-05
-9.9611e-05
7.33969e-05
-9.51823e-05
8.23372e-05
-9.05461e-05
9.16236e-05
-8.56938e-05
0.00010134
-8.05877e-05
0.000111565
-7.52673e-05
0.000122363
-6.97454e-05
0.000133791
-6.40691e-05
0.000145932
-5.83167e-05
0.000158885
-5.26051e-05
0.000172572
-4.72531e-05
0.000186381
-4.27881e-05
0.0001994
-3.94295e-05
0.000211486
-3.66979e-05
-3.44538e-05
0.000223005
4.0956e-06
-0.00012767
8.70319e-06
-0.000133967
1.42681e-05
-0.000130207
2.04898e-05
-0.000126431
2.71415e-05
-0.00012276
3.41335e-05
-0.000119079
4.14359e-05
-0.000115328
4.90356e-05
-0.000111474
5.69335e-05
-0.000107509
6.51498e-05
-0.000103399
7.37274e-05
-9.91236e-05
8.27317e-05
-9.46981e-05
9.22387e-05
-9.00947e-05
0.000102331
-8.53598e-05
0.000113087
-8.05014e-05
0.00012458
-7.55623e-05
0.000136883
-7.06195e-05
0.000150035
-6.5757e-05
0.000163939
-6.11575e-05
0.000178212
-5.70609e-05
0.000192272
-5.34891e-05
0.000205721
-5.01468e-05
-4.70618e-05
0.000218329
3.54908e-06
-0.000131219
7.02752e-06
-0.000137445
1.14833e-05
-0.000134663
1.66461e-05
-0.000131594
2.23234e-05
-0.000128437
2.8425e-05
-0.00012518
3.49114e-05
-0.000121814
4.17653e-05
-0.000118328
4.89861e-05
-0.00011473
5.6591e-05
-0.000111004
6.4617e-05
-0.00010715
7.31218e-05
-0.000103203
8.21753e-05
-9.91483e-05
9.18592e-05
-9.50436e-05
0.000102256
-9.08979e-05
0.000113445
-8.67519e-05
0.000125503
-8.26771e-05
0.000138472
-7.8726e-05
0.000152313
-7.49989e-05
0.000166849
-7.15962e-05
0.000181794
-6.8435e-05
0.000196848
-6.52004e-05
-6.15687e-05
0.000211355
2.766e-06
-0.000133985
5.30756e-06
-0.000139987
8.84321e-06
-0.000138198
1.30867e-05
-0.000135838
1.78741e-05
-0.000133225
2.3126e-05
-0.000130432
2.88044e-05
-0.000127493
3.48924e-05
-0.000124416
4.139e-05
-0.000121227
4.83137e-05
-0.000117927
5.56973e-05
-0.000114533
6.3594e-05
-0.0001111
7.20696e-05
-0.000107624
8.12033e-05
-0.000104177
9.10791e-05
-0.000100774
0.000101783
-9.74561e-05
0.000113403
-9.42971e-05
0.000126014
-9.13366e-05
0.000139667
-8.86524e-05
0.000154403
-8.63319e-05
0.000170321
-8.43525e-05
0.000187755
-8.26343e-05
-8.13096e-05
0.000207495
1.91671e-06
-0.000135902
3.76854e-06
-0.000141839
6.54503e-06
-0.000140975
9.98897e-06
-0.000139282
1.39744e-05
-0.00013721
1.84389e-05
-0.000134897
2.33507e-05
-0.000132405
2.86964e-05
-0.000129762
3.44786e-05
-0.00012701
4.07145e-05
-0.000124163
4.74374e-05
-0.000121256
5.46982e-05
-0.00011836
6.25598e-05
-0.000115485
7.10998e-05
-0.000112717
8.04028e-05
-0.000110077
9.05593e-05
-0.000107613
0.000101667
-0.000105405
0.000113826
-0.000103495
0.000127141
-0.000101968
0.000141747
-0.000100938
0.00015785
-0.000100456
0.000175793
-0.000100576
-0.000101452
0.000195935
1.18029e-06
-0.000137082
2.51804e-06
-0.000143177
4.66611e-06
-0.000143123
7.42219e-06
-0.000142038
1.06999e-05
-0.000140488
1.44548e-05
-0.000138651
1.86641e-05
-0.000136614
2.33198e-05
-0.000134418
2.84285e-05
-0.000132118
3.40099e-05
-0.000129744
4.0098e-05
-0.000127344
4.67428e-05
-0.000125005
5.40059e-05
-0.000122749
6.19631e-05
-0.000120675
7.06982e-05
-0.000118812
8.03031e-05
-0.000117218
9.08794e-05
-0.000115981
0.000102536
-0.000115152
0.000115397
-0.000114828
0.000129615
-0.000115156
0.000145385
-0.000116226
0.000162936
-0.000118128
-0.000120918
0.000182402
6.2717e-07
-0.000137709
1.57736e-06
-0.000144127
3.20817e-06
-0.000144754
5.38348e-06
-0.000144213
8.05061e-06
-0.000143155
1.11818e-05
-0.000141783
1.4764e-05
-0.000140196
1.87961e-05
-0.00013845
2.32894e-05
-0.000136612
2.82672e-05
-0.000134722
3.37648e-05
-0.000132842
3.9832e-05
-0.000131072
4.65289e-05
-0.000129445
5.39287e-05
-0.000128074
6.21124e-05
-0.000126995
7.11688e-05
-0.000126274
8.11963e-05
-0.000126009
9.23005e-05
-0.000126256
0.0001046
-0.000127128
0.000118237
-0.000128792
0.000133371
-0.00013136
0.000150162
-0.000134919
-0.000139427
0.000168671
2.66403e-07
-0.000137975
9.2195e-07
-0.000144782
2.1338e-06
-0.000145966
3.82885e-06
-0.000145908
5.97966e-06
-0.000145306
8.57272e-06
-0.000144376
1.16046e-05
-0.000143228
1.50814e-05
-0.000141926
1.90196e-05
-0.00014055
2.34457e-05
-0.000139148
2.83966e-05
-0.000137793
3.3921e-05
-0.000136597
4.00765e-05
-0.000135601
4.6932e-05
-0.00013493
5.45626e-05
-0.000134626
6.30494e-05
-0.000134761
7.2481e-05
-0.00013544
8.2951e-05
-0.000136726
9.45625e-05
-0.000138739
0.000107436
-0.000141666
0.000121704
-0.000145629
0.000137497
-0.000150711
-0.000156812
0.000154882
7.23608e-08
-0.000138048
5.06837e-07
-0.000145217
1.3882e-06
-0.000146847
2.69379e-06
-0.000147214
4.4142e-06
-0.000147026
6.54786e-06
-0.000146509
9.10023e-06
-0.00014578
1.20842e-05
-0.00014491
1.55207e-05
-0.000143986
1.94387e-05
-0.000143066
2.38752e-05
-0.000142229
2.88769e-05
-0.000141598
3.44971e-05
-0.000141221
4.07978e-05
-0.00014123
4.7845e-05
-0.000141673
5.57084e-05
-0.000142624
6.44622e-05
-0.000144194
7.41823e-05
-0.000146446
8.49515e-05
-0.000149508
9.68672e-05
-0.000153581
0.000110041
-0.000158802
0.000124593
-0.000165264
-0.000172841
0.000140622
4.08698e-09
-0.000138052
2.78292e-07
-0.000145491
9.10351e-07
-0.000147479
1.90553e-06
-0.000148209
3.26988e-06
-0.000148391
5.01251e-06
-0.000148252
7.14658e-06
-0.000147914
9.69034e-06
-0.000147454
1.26679e-05
-0.000146964
1.61092e-05
-0.000146508
2.00497e-05
-0.00014617
2.45322e-05
-0.000146081
2.96036e-05
-0.000146293
3.53168e-05
-0.000146944
4.17266e-05
-0.000148083
4.88882e-05
-0.000149786
5.68587e-05
-0.000152165
6.5694e-05
-0.000155281
7.5454e-05
-0.000159268
8.62124e-05
-0.00016434
9.80603e-05
-0.00017065
0.000111112
-0.000178315
-0.000187223
0.000125494
1.96103e-08
-0.000138071
1.92048e-07
-0.000145663
6.40792e-07
-0.000147928
1.39026e-06
-0.000148958
2.46037e-06
-0.000149461
3.8689e-06
-0.000149661
5.63512e-06
-0.000149681
7.7809e-06
-0.0001496
1.03317e-05
-0.000149515
1.33164e-05
-0.000149492
1.67673e-05
-0.000149621
2.07211e-05
-0.000150035
2.52166e-05
-0.000150788
3.02961e-05
-0.000152023
3.60014e-05
-0.000153788
4.23724e-05
-0.000156157
4.94478e-05
-0.00015924
5.72626e-05
-0.000163096
6.5853e-05
-0.000167859
7.52665e-05
-0.000173753
8.55705e-05
-0.000180954
9.68668e-05
-0.000189612
-0.000199657
0.000109301
8.16837e-08
-0.000138153
2.04576e-07
-0.000145786
5.21633e-07
-0.000148245
1.07833e-06
-0.000149515
1.90471e-06
-0.000150287
3.02596e-06
-0.000150782
4.46545e-06
-0.00015112
6.24698e-06
-0.000151382
8.39545e-06
-0.000151663
1.09368e-05
-0.000152034
1.38981e-05
-0.000152582
1.73087e-05
-0.000153445
2.11976e-05
-0.000154677
2.55956e-05
-0.000156421
3.0531e-05
-0.000158724
3.60282e-05
-0.000161654
4.21079e-05
-0.00016532
4.87843e-05
-0.000169773
5.60689e-05
-0.000175143
6.39808e-05
-0.000181665
7.25577e-05
-0.000189531
8.18792e-05
-0.000198933
-0.000209873
9.20949e-05
1.67069e-07
-0.00013832
2.78889e-07
-0.000145898
5.03673e-07
-0.00014847
9.0749e-07
-0.000149919
1.53029e-06
-0.00015091
2.40145e-06
-0.000151653
3.54715e-06
-0.000152266
4.9911e-06
-0.000152826
6.75588e-06
-0.000153428
8.86287e-06
-0.000154141
1.13324e-05
-0.000155052
1.41849e-05
-0.000156298
1.74389e-05
-0.000157931
2.11129e-05
-0.000160095
2.52218e-05
-0.000162832
2.97755e-05
-0.000166208
3.47775e-05
-0.000170322
4.02216e-05
-0.000175217
4.60949e-05
-0.000181017
5.23853e-05
-0.000187955
5.90948e-05
-0.00019624
6.62693e-05
-0.000206108
-0.000217648
7.40447e-05
2.59113e-07
-0.000138579
3.82298e-07
-0.000146021
5.4336e-07
-0.000148631
8.26186e-07
-0.000150202
1.2767e-06
-0.00015136
1.92811e-06
-0.000152304
2.80731e-06
-0.000153145
3.93643e-06
-0.000153955
5.33424e-06
-0.000154826
7.01627e-06
-0.000155823
8.99503e-06
-0.00015703
1.1281e-05
-0.000158584
1.38817e-05
-0.000160532
1.68031e-05
-0.000163017
2.00472e-05
-0.000166077
2.36099e-05
-0.00016977
2.74792e-05
-0.000174191
3.16302e-05
-0.000179368
3.60252e-05
-0.000185412
4.062e-05
-0.00019255
4.53758e-05
-0.000200996
5.02933e-05
-0.000211025
-0.000222828
5.5473e-05
3.4488e-07
-0.000138924
4.89416e-07
-0.000146166
6.06248e-07
-0.000148748
7.9155e-07
-0.000150387
1.09549e-06
-0.000151664
1.55272e-06
-0.000152762
2.18922e-06
-0.000153781
3.02428e-06
-0.00015479
4.07215e-06
-0.000155874
5.34165e-06
-0.000157092
6.83671e-06
-0.000158525
8.55749e-06
-0.000160304
1.05001e-05
-0.000162474
1.2658e-05
-0.000165175
1.50205e-05
-0.000168439
1.75708e-05
-0.000172321
2.02826e-05
-0.000176903
2.31139e-05
-0.000182199
2.60042e-05
-0.000188302
2.88771e-05
-0.000195423
3.165e-05
-0.000203769
3.4268e-05
-0.000213643
-0.000225331
3.67712e-05
4.16853e-07
-0.000139341
5.8376e-07
-0.000146333
6.69731e-07
-0.000148834
7.74892e-07
-0.000150492
9.52484e-07
-0.000151842
1.23718e-06
-0.000153046
1.65223e-06
-0.000154197
2.2141e-06
-0.000155352
2.93112e-06
-0.000156591
3.80504e-06
-0.000157966
4.83142e-06
-0.000159552
5.99996e-06
-0.000161473
7.29526e-06
-0.00016377
8.69843e-06
-0.000166578
1.01864e-05
-0.000169927
1.17302e-05
-0.000173864
1.3291e-05
-0.000178464
1.4812e-05
-0.00018372
1.62122e-05
-0.000189702
1.73854e-05
-0.000196596
1.82048e-05
-0.000204589
1.85519e-05
-0.00021399
-0.000225165
1.83851e-05
4.71313e-07
-0.000139812
6.55545e-07
-0.000146517
7.16752e-07
-0.000148895
7.55648e-07
-0.000150531
8.24122e-07
-0.00015191
9.54995e-07
-0.000153177
1.17002e-06
-0.000154412
1.48033e-06
-0.000155662
1.88867e-06
-0.000156999
2.39012e-06
-0.000158468
2.97154e-06
-0.000160133
3.61297e-06
-0.000162114
4.28781e-06
-0.000164445
4.96507e-06
-0.000167255
5.60957e-06
-0.000170572
6.17993e-06
-0.000174435
6.62802e-06
-0.000178912
6.88348e-06
-0.000183975
6.84948e-06
-0.000189668
6.39435e-06
-0.000196141
5.35168e-06
-0.000203546
3.5386e-06
-0.000212177
-0.000222426
7.9987e-07
5.07166e-07
-0.00014032
7.00108e-07
-0.00014671
7.40225e-07
-0.000148935
7.22023e-07
-0.000150513
6.96337e-07
-0.000151885
6.93141e-07
-0.000153174
7.29378e-07
-0.000154448
8.11543e-07
-0.000155744
9.37166e-07
-0.000157125
1.0947e-06
-0.000158625
1.26338e-06
-0.000160302
1.41411e-06
-0.000162265
1.51049e-06
-0.000164541
1.50984e-06
-0.000167254
1.36556e-06
-0.000170427
1.02711e-06
-0.000174096
4.27852e-07
-0.000178313
-5.08257e-07
-0.000183039
-1.88739e-06
-0.000188289
-3.86091e-06
-0.000194168
-6.62885e-06
-0.000200778
-1.04333e-05
-0.000208373
-0.000217346
-1.55134e-05
5.25351e-07
-0.000140845
7.18268e-07
-0.000146903
7.38154e-07
-0.000148955
6.71186e-07
-0.000150446
5.65565e-07
-0.000151779
4.46252e-07
-0.000153055
3.25903e-07
-0.000154327
2.05964e-07
-0.000155624
7.85987e-08
-0.000156997
-7.43923e-08
-0.000158472
-2.79293e-07
-0.000160097
-5.72909e-07
-0.000161972
-1.00095e-06
-0.000164113
-1.61637e-06
-0.000166639
-2.47756e-06
-0.000169566
-3.64774e-06
-0.000172926
-5.19519e-06
-0.000176765
-7.20723e-06
-0.000181027
-9.80022e-06
-0.000185696
-1.31348e-05
-0.000190833
-1.74306e-05
-0.000196482
-2.29717e-05
-0.000202831
-0.000210229
-3.00886e-05
5.31604e-07
-0.000141376
7.15254e-07
-0.000147086
7.1421e-07
-0.000148954
6.05107e-07
-0.000150337
4.33218e-07
-0.000151607
2.17072e-07
-0.000152839
-3.6894e-08
-0.000154073
-3.31329e-07
-0.00015533
-6.79303e-07
-0.000156649
-1.10291e-06
-0.000158048
-1.63476e-06
-0.000159565
-2.31746e-06
-0.000161289
-3.20366e-06
-0.000163227
-4.3552e-06
-0.000165487
-5.84038e-06
-0.000168081
-7.73204e-06
-0.000171035
-1.01089e-05
-0.000174388
-1.30629e-05
-0.000178073
-1.67122e-05
-0.000182047
-2.12197e-05
-0.000186326
-2.6811e-05
-0.000190891
-3.37921e-05
-0.00019585
-0.000201468
-4.25525e-05
5.41386e-07
-0.000141918
7.02238e-07
-0.000147247
6.77313e-07
-0.000148929
5.29394e-07
-0.000150189
3.04393e-07
-0.000151382
1.02084e-08
-0.000152544
-3.51751e-07
-0.000153711
-7.90164e-07
-0.000154891
-1.32217e-06
-0.000156117
-1.97388e-06
-0.000157397
-2.7813e-06
-0.000158758
-3.79129e-06
-0.000160279
-5.06153e-06
-0.000161957
-6.6605e-06
-0.000163888
-8.66473e-06
-0.000166077
-1.11561e-05
-0.000168543
-1.42218e-05
-0.000171323
-1.79577e-05
-0.000174337
-2.24809e-05
-0.000177523
-2.79484e-05
-0.000180858
-3.45778e-05
-0.000184261
-4.26716e-05
-0.000187757
-0.000191502
-5.2638e-05
5.80351e-07
-0.000142498
6.87694e-07
-0.000147355
6.31762e-07
-0.000148873
4.48081e-07
-0.000150005
1.84483e-07
-0.000151119
-1.67038e-07
-0.000152193
-6.10981e-07
-0.000153268
-1.16117e-06
-0.000154341
-1.8384e-06
-0.00015544
-2.6715e-06
-0.000156564
-3.69866e-06
-0.000157731
-4.96904e-06
-0.000159009
-6.54318e-06
-0.000160382
-8.49373e-06
-0.000161938
-1.09031e-05
-0.000163667
-1.38606e-05
-0.000165586
-1.74604e-05
-0.000167723
-2.18023e-05
-0.000169995
-2.69998e-05
-0.000172326
-3.31986e-05
-0.000174659
-4.05964e-05
-0.000176864
-4.94699e-05
-0.000178883
-0.000180768
-6.02039e-05
6.69794e-07
-0.000143168
6.65597e-07
-0.00014735
5.74173e-07
-0.000148781
3.60111e-07
-0.000149791
7.28261e-08
-0.000150831
-3.11719e-07
-0.000151808
-8.09184e-07
-0.00015277
-1.43689e-06
-0.000153713
-2.21804e-06
-0.000154659
-3.18293e-06
-0.000155599
-4.37053e-06
-0.000156543
-5.83063e-06
-0.000157548
-7.62451e-06
-0.000158589
-9.82651e-06
-0.000159736
-1.25222e-05
-0.000160972
-1.58058e-05
-0.000162302
-1.97773e-05
-0.000163751
-2.45393e-05
-0.000165233
-3.02017e-05
-0.000166664
-3.68962e-05
-0.000167965
-4.47928e-05
-0.000168967
-5.41264e-05
-0.00016955
-0.000169667
-6.52271e-05
8.01727e-07
-0.00014397
6.07887e-07
-0.000147157
4.87568e-07
-0.000148661
2.57515e-07
-0.000149561
-2.79177e-08
-0.000150546
-4.22902e-07
-0.000151413
-9.44599e-07
-0.000152248
-1.61405e-06
-0.000153044
-2.4559e-06
-0.000153817
-3.50062e-06
-0.000154554
-4.78675e-06
-0.000155257
-6.36317e-06
-0.000155972
-8.29017e-06
-0.000156662
-1.06415e-05
-0.000157385
-1.35031e-05
-0.00015811
-1.69714e-05
-0.000158834
-2.11498e-05
-0.000159573
-2.61434e-05
-0.00016024
-3.20591e-05
-0.000160748
-3.90143e-05
-0.00016101
-4.71495e-05
-0.000160832
-5.66507e-05
-0.000160048
-0.000158542
-6.7776e-05
9.25386e-07
-0.000144895
4.69572e-07
-0.000146701
3.44434e-07
-0.000148536
1.32628e-07
-0.000149349
-1.28784e-07
-0.000150284
-5.05439e-07
-0.000151037
-1.02005e-06
-0.000151734
-1.69432e-06
-0.00015237
-2.55237e-06
-0.000152959
-3.62346e-06
-0.000153483
-4.9444e-06
-0.000153936
-6.562e-06
-0.000154354
-8.53413e-06
-0.000154689
-1.0932e-05
-0.000154987
-1.38398e-05
-0.000155202
-1.7353e-05
-0.000155321
-2.15761e-05
-0.00015535
-2.66158e-05
-0.0001552
-3.25768e-05
-0.000154787
-3.95654e-05
-0.000154021
-4.76948e-05
-0.000152702
-5.71028e-05
-0.00015064
-0.000147671
-6.79733e-05
9.30775e-07
-0.000145826
2.21483e-07
-0.000145991
9.6823e-08
-0.000148411
-2.0924e-08
-0.000149231
-2.33563e-07
-0.000150072
-5.64585e-07
-0.000150706
-1.04144e-06
-0.000151257
-1.68421e-06
-0.000151727
-2.51446e-06
-0.000152129
-3.55873e-06
-0.000152439
-4.85094e-06
-0.000152644
-6.43476e-06
-0.000152771
-8.36452e-06
-0.00015276
-1.07077e-05
-0.000152644
-1.35443e-05
-0.000152366
-1.69671e-05
-0.000151898
-2.10792e-05
-0.000151238
-2.59875e-05
-0.000150292
-3.17963e-05
-0.000148978
-3.8605e-05
-0.000147212
-4.65066e-05
-0.000144801
-5.55976e-05
-0.000141549
-0.000137274
-6.59951e-05
5.97853e-07
-0.000146424
-1.82786e-07
-0.000145211
-2.14157e-07
-0.00014838
-2.31369e-07
-0.000149214
-3.46681e-07
-0.000149957
-6.03803e-07
-0.000150448
-1.01455e-06
-0.000150846
-1.59202e-06
-0.000151149
-2.35276e-06
-0.000151368
-3.31905e-06
-0.000151472
-4.52079e-06
-0.000151442
-5.99743e-06
-0.000151294
-7.7988e-06
-0.000150958
-9.98725e-06
-0.000150455
-1.26376e-05
-0.000149715