/*--------------------------------*- C++ -*----------------------------------*\
| =========                 |                                                 |
| \\      /  F ield         | OpenFOAM: The Open Source CFD Toolbox           |
|  \\    /   O peration     | Version:  2212                                  |
|   \\  /    A nd           | Website:  www.openfoam.com                      |
|    \\/     M anipulation  |                                                 |
\*---------------------------------------------------------------------------*/
FoamFile
{
    version     2.0;
    format      ascii;
    arch        "LSB;label=32;scalar=64";
    class       volVectorField;
    location    "0.35";
    object      U;
}
// * * * * * * * * * * * * * * * * * * * * * * * * * * * * * * * * * * * * * //

dimensions      [0 1 -1 0 0 0 0];

internalField   nonuniform List<vector> 
2268
(
(-0.0488186 0.0186222 0)
(-0.0795806 0.00486557 0)
(-0.0630814 -0.00855742 0)
(-0.0231091 -0.0134929 0)
(0.0272189 -0.0150318 0)
(0.0812253 -0.0155942 0)
(0.135806 -0.0154732 0)
(0.18967 -0.0150517 0)
(0.241946 -0.014481 0)
(0.292011 -0.0137791 0)
(0.339269 -0.0129171 0)
(0.382991 -0.011836 0)
(0.422169 -0.0104392 0)
(0.455379 -0.00853725 0)
(0.480192 -0.0058202 0)
(0.494034 -0.000840882 0)
(0.487145 0.00727561 0)
(0.449601 0.0193389 0)
(0.374523 0.0338854 0)
(0.240721 0.0457307 0)
(0.0914247 0.0544966 0)
(-0.146175 0.0168456 0)
(-0.111265 -0.0591732 0)
(-0.0418803 0.0411084 0)
(-0.0394907 0.00397691 0)
(-0.016228 -0.0204283 0)
(0.0239915 -0.0321109 0)
(0.072452 -0.0370148 0)
(0.124304 -0.0387684 0)
(0.176848 -0.0388058 0)
(0.228682 -0.0379697 0)
(0.278919 -0.0366087 0)
(0.326897 -0.0348055 0)
(0.371974 -0.032513 0)
(0.413398 -0.0295918 0)
(0.450169 -0.0257974 0)
(0.480912 -0.0207022 0)
(0.503708 -0.013609 0)
(0.515663 -0.00286202 0)
(0.515886 0.0134377 0)
(0.498399 0.0369314 0)
(0.455647 0.0678168 0)
(0.364572 0.100128 0)
(0.242052 0.127722 0)
(0.0247828 0.0873689 0)
(-0.00142402 -0.0762448 0)
(-0.0218287 0.053976 0)
(-0.0105662 -0.00435343 0)
(0.0166785 -0.0365492 0)
(0.0569882 -0.0528057 0)
(0.103837 -0.0600948 0)
(0.153453 -0.0626095 0)
(0.203568 -0.062579 0)
(0.252916 -0.061179 0)
(0.300672 -0.0589113 0)
(0.346185 -0.0559053 0)
(0.388815 -0.0520888 0)
(0.427815 -0.0472422 0)
(0.462221 -0.0409851 0)
(0.490744 -0.0327043 0)
(0.511664 -0.0214499 0)
(0.522619 -0.00572473 0)
(0.521734 0.0169039 0)
(0.505914 0.0491272 0)
(0.472308 0.0930516 0)
(0.40922 0.143709 0)
(0.323133 0.189143 0)
(0.159874 0.148876 0)
(0.0805221 -0.0420355 0)
(-0.00421018 0.0567246 0)
(0.0123329 -0.0136275 0)
(0.043371 -0.0529418 0)
(0.0844064 -0.0732153 0)
(0.130198 -0.0823688 0)
(0.177871 -0.0854527 0)
(0.225677 -0.0852815 0)
(0.27259 -0.0833012 0)
(0.317903 -0.0801318 0)
(0.361015 -0.0759344 0)
(0.401307 -0.0706094 0)
(0.43806 -0.0638641 0)
(0.470363 -0.0551997 0)
(0.497033 -0.043842 0)
(0.516551 -0.0286462 0)
(0.526998 -0.00796335 0)
(0.526602 0.0206549 0)
(0.513332 0.0601079 0)
(0.485967 0.112991 0)
(0.438663 0.175723 0)
(0.373611 0.235278 0)
(0.248262 0.21124 0)
(0.136908 0.0320207 0)
(0.0069934 0.0503867 0)
(0.0301181 -0.0257696 0)
(0.0656648 -0.0706931 0)
(0.108092 -0.0938405 0)
(0.153371 -0.104232 0)
(0.199444 -0.107589 0)
(0.245134 -0.107147 0)
(0.289735 -0.104544 0)
(0.332704 -0.10047 0)
(0.37352 -0.0950966 0)
(0.411611 -0.0882912 0)
(0.4463 -0.0796939 0)
(0.476748 -0.0687049 0)
(0.50189 -0.0544212 0)
(0.520419 -0.0355622 0)
(0.530792 -0.010402 0)
(0.531616 0.0234536 0)
(0.521622 0.0688797 0)
(0.500371 0.128515 0)
(0.464754 0.199991 0)
(0.413223 0.271658 0)
(0.313883 0.27256 0)
(0.182467 0.135644 0)
(0.0125531 0.0389126 0)
(0.0433939 -0.0413398 0)
(0.0842778 -0.0900003 0)
(0.128728 -0.114804 0)
(0.173928 -0.125682 0)
(0.218674 -0.128916 0)
(0.262418 -0.128024 0)
(0.304834 -0.12474 0)
(0.345578 -0.119768 0)
(0.384228 -0.113256 0)
(0.420269 -0.105032 0)
(0.453083 -0.0946722 0)
(0.481912 -0.0814955 0)
(0.505824 -0.0645008 0)
(0.523716 -0.0423244 0)
(0.534385 -0.0132305 0)
(0.536875 0.0250512 0)
(0.530584 0.0752531 0)
(0.515675 0.140012 0)
(0.490661 0.218311 0)
(0.4509 0.301405 0)
(0.373785 0.332731 0)
(0.226144 0.264534 0)
(0.015096 0.0242409 0)
(0.0534662 -0.0603014 0)
(0.100036 -0.111089 0)
(0.146916 -0.136303 0)
(0.192258 -0.146838 0)
(0.235793 -0.149488 0)
(0.27768 -0.14794 0)
(0.31801 -0.143911 0)
(0.356645 -0.13805 0)
(0.393265 -0.130448 0)
(0.427414 -0.12088 0)
(0.458539 -0.108869 0)
(0.48597 -0.0936679 0)
(0.508915 -0.0742062 0)
(0.526467 -0.0490792 0)
(0.537731 -0.0166043 0)
(0.542186 0.0252942 0)
(0.539879 0.0791236 0)
(0.531663 0.147488 0)
(0.517531 0.230797 0)
(0.491372 0.324274 0)
(0.442384 0.39215 0)
(0.278228 0.40589 0)
(0.0167024 0.00737865 0)
(0.0616792 -0.082283 0)
(0.113949 -0.133972 0)
(0.163354 -0.158395 0)
(0.208742 -0.167724 0)
(0.250962 -0.16931 0)
(0.29097 -0.166899 0)
(0.32927 -0.162074 0)
(0.365904 -0.155342 0)
(0.400627 -0.146708 0)
(0.433039 -0.135886 0)
(0.462647 -0.12235 0)
(0.48888 -0.105307 0)
(0.511083 -0.0836417 0)
(0.528534 -0.0559427 0)
(0.54061 -0.0206436 0)
(0.547205 0.0240518 0)
(0.549011 0.0803203 0)
(0.547762 0.150549 0)
(0.545265 0.236201 0)
(0.537121 0.336438 0)
(0.520765 0.441781 0)
(0.352533 0.639022 0)
(0.0472916 -0.0033598 0)
(-0.0883078 0.0371611 0)
(-0.239636 0.0261501 0)
(-0.289596 0.00820254 0)
(-0.278297 -0.00908766 0)
(-0.216021 -0.0188796 0)
(-0.128852 -0.0237071 0)
(-0.0294801 -0.0249864 0)
(0.0696245 -0.0236547 0)
(0.159493 -0.0201325 0)
(0.232497 -0.0149453 0)
(0.282569 -0.00869942 0)
(0.306138 -0.00166344 0)
(0.299804 0.0050731 0)
(0.267319 0.0103543 0)
(0.215401 0.0137319 0)
(0.151035 0.0154015 0)
(0.0813819 0.0147049 0)
(0.0222429 0.0108505 0)
(-0.0068253 0.0200225 0)
(-0.151091 0.0946176 0)
(-0.275302 0.0563666 0)
(-0.293783 0.0137182 0)
(-0.273768 -0.0247227 0)
(-0.210695 -0.0491382 0)
(-0.12325 -0.0617663 0)
(-0.0244316 -0.0652557 0)
(0.0737708 -0.062136 0)
(0.162963 -0.0534638 0)
(0.236161 -0.0403374 0)
(0.287596 -0.024041 0)
(0.313246 -0.00594225 0)
(0.31308 0.0117386 0)
(0.28705 0.0267762 0)
(0.237889 0.037707 0)
(0.171863 0.043867 0)
(0.0976544 0.0433863 0)
(0.0295202 0.0338077 0)
(-0.0358925 0.0617066 0)
(-0.17092 0.150419 0)
(-0.273245 0.079465 0)
(-0.283886 0.0137687 0)
(-0.263701 -0.0425478 0)
(-0.200865 -0.0807622 0)
(-0.113835 -0.100743 0)
(-0.015844 -0.106072 0)
(0.0812362 -0.100963 0)
(0.169413 -0.0872572 0)
(0.242058 -0.0665133 0)
(0.29365 -0.0405516 0)
(0.320221 -0.0117434 0)
(0.320216 0.0169428 0)
(0.294057 0.0423956 0)
(0.244951 0.0618906 0)
(0.179061 0.0734402 0)
(0.105263 0.0743743 0)
(0.0342906 0.0622781 0)
(-0.0424573 0.0943777 0)
(-0.173554 0.202738 0)
(-0.266085 0.0989128 0)
(-0.268504 0.0127204 0)
(-0.247947 -0.059914 0)
(-0.186345 -0.112409 0)
(-0.100278 -0.139914 0)
(-0.00339047 -0.146958 0)
(0.0926495 -0.139726 0)
(0.180207 -0.120879 0)
(0.25259 -0.0925381 0)
(0.304287 -0.0570513 0)
(0.331352 -0.0174599 0)
(0.331759 0.0224274 0)
(0.305597 0.0583612 0)
(0.255894 0.0863419 0)
(0.188744 0.103272 0)
(0.113258 0.106148 0)
(0.0385124 0.0930465 0)
(-0.0233274 0.171719 0)
(-0.156272 0.255124 0)
(-0.246691 0.114896 0)
(-0.236733 0.00946082 0)
(-0.216455 -0.0766916 0)
(-0.159096 -0.143626 0)
(-0.0771582 -0.178976 0)
(0.0160458 -0.187837 0)
(0.109622 -0.178746 0)
(0.196197 -0.154852 0)
(0.268359 -0.118891 0)
(0.320136 -0.0738154 0)
(0.347384 -0.0233427 0)
(0.347837 0.0279058 0)
(0.321273 0.0746371 0)
(0.270284 0.111502 0)
(0.200679 0.134196 0)
(0.121764 0.139505 0)
(0.0422804 0.126115 0)
(0.000529875 0.117966 0)
(-0.127093 0.3033 0)
(-0.198123 0.123912 0)
(-0.167362 0.00225317 0)
(-0.149839 -0.0913405 0)
(-0.103658 -0.172857 0)
(-0.0338145 -0.215493 0)
(0.0487112 -0.226083 0)
(0.135318 -0.216352 0)
(0.218794 -0.18831 0)
(0.289975 -0.145164 0)
(0.341538 -0.0905993 0)
(0.368605 -0.0291907 0)
(0.368579 0.0335664 0)
(0.340983 0.0914009 0)
(0.287922 0.137643 0)
(0.214774 0.166658 0)
(0.131015 0.174911 0)
(0.0458827 0.161749 0)
(0.106562 0.29913 0)
(-0.0390947 0.33205 0)
(-0.0861094 0.120457 0)
(-0.0243292 -0.00943187 0)
(-0.0183361 -0.105356 0)
(0.00324264 -0.201045 0)
(0.047254 -0.247623 0)
(0.10563 -0.258772 0)
(0.175568 -0.25046 0)
(0.250682 -0.220125 0)
(0.318554 -0.170882 0)
(0.369012 -0.107178 0)
(0.395333 -0.0347767 0)
(0.394171 0.0396907 0)
(0.364789 0.108978 0)
(0.308846 0.165151 0)
(0.231203 0.201137 0)
(0.141397 0.212831 0)
(0.0496326 0.200166 0)
(0.258908 0.0813111 0)
(0.0852443 0.508589 0)
(0.15521 0.113341 0)
(0.23425 -0.0204725 0)
(0.216684 -0.117265 0)
(0.189859 -0.214653 0)
(0.188622 -0.264573 0)
(0.202845 -0.283925 0)
(0.240179 -0.280938 0)
(0.297147 -0.250009 0)
(0.356426 -0.195665 0)
(0.403577 -0.123263 0)
(0.428115 -0.0397696 0)
(0.424919 0.0466851 0)
(0.392822 0.127817 0)
(0.333114 0.194531 0)
(0.250146 0.238262 0)
(0.153331 0.253944 0)
(0.0538203 0.241568 0)
(0.0193147 -0.0230616 0)
(0.0738346 -0.121921 0)
(0.134994 -0.172862 0)
(0.187471 -0.193731 0)
(0.231895 -0.199627 0)
(0.271445 -0.198833 0)
(0.308326 -0.19486 0)
(0.343521 -0.18879 0)
(0.377212 -0.180784 0)
(0.409208 -0.170665 0)
(0.439162 -0.15805 0)
(0.46667 -0.14236 0)
(0.491314 -0.122758 0)
(0.51266 -0.0980897 0)
(0.530248 -0.0669718 0)
(0.543814 -0.0281078 0)
(0.553831 0.0196874 0)
(0.561925 0.0778044 0)
(0.571405 0.147675 0)
(0.587659 0.230682 0)
(0.61757 0.327882 0)
(0.676404 0.445375 0)
(0.794734 0.694131 0)
(0.0227349 -0.0731598 0)
(0.0965534 -0.187693 0)
(0.168667 -0.231399 0)
(0.219812 -0.241659 0)
(0.258254 -0.239987 0)
(0.291686 -0.235239 0)
(0.323413 -0.22931 0)
(0.354318 -0.221871 0)
(0.384301 -0.21243 0)
(0.413011 -0.200585 0)
(0.440073 -0.185886 0)
(0.465163 -0.167767 0)
(0.48806 -0.145439 0)
(0.508615 -0.11775 0)
(0.526615 -0.0833681 0)
(0.542017 -0.0414843 0)
(0.55572 0.00800373 0)
(0.569812 0.0647092 0)
(0.588129 0.128254 0)
(0.6166 0.197663 0)
(0.661891 0.270557 0)
(0.726233 0.34281 0)
(0.853593 0.424042 0)
(0.0267908 -0.14275 0)
(0.143572 -0.276698 0)
(0.214183 -0.294441 0)
(0.249092 -0.28484 0)
(0.275565 -0.274681 0)
(0.301788 -0.267439 0)
(0.328817 -0.260778 0)
(0.35615 -0.252642 0)
(0.383028 -0.242127 0)
(0.408883 -0.228821 0)
(0.433313 -0.212331 0)
(0.456067 -0.192223 0)
(0.477129 -0.167885 0)
(0.496668 -0.138238 0)
(0.514741 -0.101852 0)
(0.531454 -0.0583505 0)
(0.54758 -0.00866396 0)
(0.565178 0.0451204 0)
(0.587613 0.101144 0)
(0.619548 0.157222 0)
(0.665129 0.210546 0)
(0.724502 0.255489 0)
(0.816139 0.287771 0)
(0.0731733 -0.236762 0)
(0.224641 -0.386875 0)
(0.25966 -0.347339 0)
(0.261029 -0.312771 0)
(0.277714 -0.297272 0)
(0.301055 -0.29036 0)
(0.32601 -0.284485 0)
(0.351017 -0.276398 0)
(0.375317 -0.265343 0)
(0.398458 -0.251124 0)
(0.420143 -0.233478 0)
(0.440223 -0.212148 0)
(0.458821 -0.186764 0)
(0.476366 -0.156387 0)
(0.493395 -0.119469 0)
(0.510622 -0.0759941 0)
(0.528927 -0.0277193 0)
(0.549766 0.0222537 0)
(0.575845 0.0705639 0)
(0.610393 0.114797 0)
(0.654816 0.155072 0)
(0.70837 0.188792 0)
(0.774992 0.208947 0)
(0.228408 -0.428457 0)
(0.29903 -0.482563 0)
(0.263458 -0.326941 0)
(0.24125 -0.301882 0)
(0.268066 -0.292743 0)
(0.294549 -0.28838 0)
(0.317771 -0.291029 0)
(0.340512 -0.284378 0)
(0.361959 -0.273778 0)
(0.381922 -0.259487 0)
(0.400188 -0.241392 0)
(0.416649 -0.219503 0)
(0.431479 -0.193915 0)
(0.445283 -0.16402 0)
(0.459261 -0.127858 0)
(0.475913 -0.0860947 0)
(0.498515 -0.0410203 0)
(0.528962 0.00440011 0)
(0.565486 0.0456735 0)
(0.604812 0.08113 0)
(0.647076 0.112504 0)
(0.694866 0.137159 0)
(0.749688 0.148482 0)
(0.288683 -0.721924 0)
(0.118429 -0.426006 0)
(0.156937 -0.215659 0)
(0.214787 -0.319966 0)
(0.250327 -0.376217 0)
(0.288917 -0.371106 0)
(0.319758 -0.341165 0)
(0.339853 -0.318438 0)
(0.357117 -0.299585 0)
(0.372611 -0.279983 0)
(0.386538 -0.2579 0)
(0.398862 -0.232589 0)
(0.409348 -0.203919 0)
(0.417561 -0.172154 0)
(0.425752 -0.135646 0)
(0.438073 -0.095428 0)
(0.458376 -0.0538347 0)
(0.491028 -0.0141027 0)
(0.539699 0.0240325 0)
(0.590364 0.0561124 0)
(0.641121 0.0833109 0)
(0.69729 0.102522 0)
(0.755022 0.109002 0)
(-0.13682 -0.895677 0)
(-0.0475377 -0.453378 0)
(0.0509815 -0.369363 0)
(0.155259 -0.387914 0)
(0.214265 -0.398708 0)
(0.263316 -0.393212 0)
(0.310294 -0.383114 0)
(0.354696 -0.370502 0)
(0.394831 -0.355106 0)
(0.430612 -0.335577 0)
(0.462816 -0.311208 0)
(0.492067 -0.282139 0)
(0.518633 -0.249535 0)
(0.542293 -0.216351 0)
(0.562928 -0.185613 0)
(0.580812 -0.162141 0)
(0.597475 -0.148393 0)
(0.6213 -0.140008 0)
(0.633859 -0.100587 0)
(0.608424 -0.0178465 0)
(0.633955 0.0374041 0)
(0.694527 0.0715411 0)
(0.769012 0.0765336 0)
(-0.0823405 -0.571829 0)
(-0.0503473 -0.557604 0)
(0.050737 -0.482482 0)
(0.138317 -0.464786 0)
(0.202834 -0.452078 0)
(0.257242 -0.434319 0)
(0.308234 -0.413192 0)
(0.357059 -0.391413 0)
(0.403208 -0.369218 0)
(0.446702 -0.345544 0)
(0.488149 -0.31937 0)
(0.528333 -0.290014 0)
(0.568011 -0.257256 0)
(0.607703 -0.221479 0)
(0.647624 -0.183139 0)
(0.687041 -0.142711 0)
(0.723153 -0.0996071 0)
(0.752317 -0.0526595 0)
(0.771558 -0.00974914 0)
(0.78811 -0.00885255 0)
(0.822022 -0.0729851 0)
(0.878567 -0.130273 0)
(0.900901 -0.0936728 0)
(-0.00541158 -0.650841 0)
(0.0127389 -0.61264 0)
(0.0709576 -0.560302 0)
(0.133685 -0.532365 0)
(0.190351 -0.511186 0)
(0.242457 -0.489672 0)
(0.292538 -0.466924 0)
(0.341498 -0.443557 0)
(0.389329 -0.419518 0)
(0.436126 -0.394193 0)
(0.482308 -0.366914 0)
(0.528499 -0.337206 0)
(0.575359 -0.30496 0)
(0.623356 -0.270536 0)
(0.672573 -0.234613 0)
(0.722485 -0.198006 0)
(0.772255 -0.160721 0)
(0.822693 -0.121114 0)
(0.877659 -0.0790934 0)
(0.938466 -0.0463936 0)
(0.992896 -0.0341718 0)
(1.02897 -0.0269714 0)
(1.05232 -0.0225458 0)
(0.00146153 -0.63451 0)
(0.0280132 -0.648643 0)
(0.0753202 -0.613665 0)
(0.124146 -0.586061 0)
(0.172496 -0.562588 0)
(0.219845 -0.539759 0)
(0.266845 -0.516543 0)
(0.313884 -0.492843 0)
(0.36102 -0.468465 0)
(0.408349 -0.442998 0)
(0.456163 -0.415991 0)
(0.504928 -0.387105 0)
(0.555178 -0.356227 0)
(0.607369 -0.323522 0)
(0.661761 -0.289322 0)
(0.718374 -0.253975 0)
(0.777304 -0.217556 0)
(0.83949 -0.180288 0)
(0.906559 -0.145135 0)
(0.976837 -0.120747 0)
(1.04206 -0.112929 0)
(1.09781 -0.10829 0)
(1.1503 -0.0970655 0)
(0.00927077 -0.655525 0)
(0.0347021 -0.683996 0)
(0.0707971 -0.655819 0)
(0.109871 -0.630292 0)
(0.150835 -0.607205 0)
(0.192806 -0.584743 0)
(0.2357 -0.562107 0)
(0.279569 -0.539034 0)
(0.324423 -0.515315 0)
(0.370333 -0.490672 0)
(0.417512 -0.464818 0)
(0.466321 -0.437533 0)
(0.517209 -0.408733 0)
(0.570628 -0.378492 0)
(0.626968 -0.347001 0)
(0.686532 -0.314511 0)
(0.749668 -0.281325 0)
(0.816947 -0.248191 0)
(0.888768 -0.217341 0)
(0.963479 -0.192826 0)
(1.03628 -0.176344 0)
(1.10359 -0.163615 0)
(1.16666 -0.153201 0)
(0.0123147 -0.678811 0)
(0.0332192 -0.712362 0)
(0.0607444 -0.689239 0)
(0.0926213 -0.666936 0)
(0.127304 -0.645786 0)
(0.163993 -0.624845 0)
(0.202386 -0.603627 0)
(0.242385 -0.58192 0)
(0.28396 -0.559576 0)
(0.327163 -0.53643 0)
(0.372161 -0.512331 0)
(0.419252 -0.487174 0)
(0.468825 -0.460936 0)
(0.521316 -0.433693 0)
(0.577164 -0.405598 0)
(0.636774 -0.376882 0)
(0.700547 -0.347885 0)
(0.768857 -0.319256 0)
(0.841711 -0.292299 0)
(0.917884 -0.268816 0)
(0.994494 -0.249381 0)
(1.06866 -0.232183 0)
(1.13894 -0.217451 0)
(0.0110627 -0.699617 0)
(0.0276463 -0.73367 0)
(0.0486473 -0.715909 0)
(0.0747561 -0.697396 0)
(0.103965 -0.678897 0)
(0.135643 -0.660101 0)
(0.169461 -0.64082 0)
(0.205274 -0.620958 0)
(0.243034 -0.60045 0)
(0.282785 -0.579239 0)
(0.324671 -0.557289 0)
(0.36895 -0.534602 0)
(0.41597 -0.511234 0)
(0.466146 -0.487298 0)
(0.519924 -0.462954 0)
(0.577747 -0.438418 0)
(0.640046 -0.413981 0)
(0.70718 -0.390091 0)
(0.779227 -0.367431 0)
(0.855617 -0.346667 0)
(0.934977 -0.327561 0)
(1.01563 -0.3084 0)
(1.09563 -0.288182 0)
(0.0083814 -0.716799 0)
(0.0209213 -0.749524 0)
(0.0369203 -0.737195 0)
(0.0581067 -0.722576 0)
(0.0824353 -0.706991 0)
(0.109433 -0.690642 0)
(0.138799 -0.673587 0)
(0.170386 -0.655854 0)
(0.20415 -0.637468 0)
(0.240134 -0.618468 0)
(0.278473 -0.598918 0)
(0.319402 -0.578922 0)
(0.363245 -0.558615 0)
(0.410395 -0.538166 0)
(0.461296 -0.517764 0)
(0.51641 -0.497625 0)
(0.57621 -0.478009 0)
(0.641145 -0.459258 0)
(0.711566 -0.441792 0)
(0.787678 -0.425921 0)
(0.869746 -0.411364 0)
(0.958907 -0.396963 0)
(1.05849 -0.381945 0)
(0.00549791 -0.729266 0)
(0.0145089 -0.761046 0)
(0.0266922 -0.754006 0)
(0.0436484 -0.743143 0)
(0.0636515 -0.73052 0)
(0.0863694 -0.716746 0)
(0.111557 -0.702072 0)
(0.13909 -0.686635 0)
(0.168939 -0.670548 0)
(0.201158 -0.653936 0)
(0.23588 -0.636956 0)
(0.273333 -0.619802 0)
(0.313826 -0.602689 0)
(0.357737 -0.58585 0)
(0.405506 -0.569517 0)
(0.457605 -0.553932 0)
(0.514541 -0.539368 0)
(0.576844 -0.526163 0)
(0.645055 -0.514732 0)
(0.719782 -0.505481 0)
(0.801879 -0.498624 0)
(0.892826 -0.494201 0)
(0.995188 -0.493076 0)
(0.00302745 -0.737344 0)
(0.00916567 -0.769418 0)
(0.0184184 -0.767118 0)
(0.0317571 -0.759713 0)
(0.0479892 -0.749975 0)
(0.0668893 -0.738799 0)
(0.0882771 -0.726574 0)
(0.112066 -0.713527 0)
(0.138252 -0.69985 0)
(0.166904 -0.685748 0)
(0.198167 -0.671462 0)
(0.232266 -0.657265 0)
(0.269502 -0.643453 0)
(0.310246 -0.630322 0)
(0.354928 -0.618157 0)
(0.404021 -0.607243 0)
(0.458042 -0.59789 0)
(0.517554 -0.590483 0)
(0.583171 -0.585515 0)
(0.655617 -0.583556 0)
(0.735813 -0.58516 0)
(0.824967 -0.590777 0)
(0.924664 -0.600897 0)
(0.00127292 -0.741907 0)
(0.00515618 -0.775435 0)
(0.0121175 -0.777166 0)
(0.022421 -0.772872 0)
(0.0354352 -0.765878 0)
(0.0510092 -0.757254 0)
(0.0690296 -0.747484 0)
(0.0894542 -0.736868 0)
(0.112309 -0.725668 0)
(0.137687 -0.714158 0)
(0.165744 -0.702655 0)
(0.19671 -0.691505 0)
(0.23088 -0.681075 0)
(0.268614 -0.671723 0)
(0.310326 -0.663791 0)
(0.356472 -0.657607 0)
(0.407552 -0.653526 0)
(0.464111 -0.651991 0)
(0.526746 -0.653573 0)
(0.596149 -0.658972 0)
(0.673137 -0.668904 0)
(0.758638 -0.683859 0)
(0.853686 -0.703687 0)
(0.000273715 -0.744015 0)
(0.00245238 -0.779667 0)
(0.007595 -0.784709 0)
(0.0154181 -0.783182 0)
(0.0257428 -0.778752 0)
(0.038474 -0.772583 0)
(0.0535624 -0.765224 0)
(0.0710116 -0.757034 0)
(0.090881 -0.748334 0)
(0.113285 -0.73946 0)
(0.138395 -0.730791 0)
(0.166439 -0.722738 0)
(0.197706 -0.71573 0)
(0.232534 -0.710182 0)
(0.271311 -0.706481 0)
(0.314456 -0.704997 0)
(0.362423 -0.706122 0)
(0.415698 -0.710342 0)
(0.474807 -0.718294 0)
(0.540346 -0.730764 0)
(0.613004 -0.748558 0)
(0.693537 -0.772125 0)
(0.782765 -0.800842 0)
(-0.000111505 -0.744714 0)
(0.000866811 -0.782534 0)
(0.0045761 -0.790243 0)
(0.0104267 -0.791162 0)
(0.018541 -0.789086 0)
(0.0288727 -0.785234 0)
(0.0414316 -0.780198 0)
(0.0562641 -0.774385 0)
(0.0734599 -0.768163 0)
(0.0931525 -0.76192 0)
(0.115519 -0.756084 0)
(0.140786 -0.751121 0)
(0.169221 -0.747509 0)
(0.201135 -0.745708 0)
(0.236872 -0.746142 0)
(0.276797 -0.749207 0)
(0.321293 -0.755319 0)
(0.370762 -0.764992 0)
(0.425628 -0.778907 0)
(0.486369 -0.797922 0)
(0.55355 -0.822921 0)
(0.627825 -0.854365 0)
(0.709943 -0.891385 0)
(-8.55064e-05 -0.744787 0)
(0.000150886 -0.784363 0)
(0.002781 -0.794228 0)
(0.00708797 -0.797272 0)
(0.0134061 -0.797316 0)
(0.0217235 -0.795606 0)
(0.0321026 -0.792765 0)
(0.0446259 -0.789234 0)
(0.0594064 -0.785416 0)
(0.0765887 -0.781738 0)
(0.0963489 -0.778669 0)
(0.118898 -0.776712 0)
(0.144478 -0.776384 0)
(0.173357 -0.778175 0)
(0.205825 -0.782532 0)
(0.242178 -0.789862 0)
(0.282715 -0.80059 0)
(0.327737 -0.815239 0)
(0.377552 -0.834522 0)
(0.432514 -0.85936 0)
(0.493061 -0.890738 0)
(0.55976 -0.929205 0)
(0.633298 -0.973853 0)
(0.000183098 -0.744774 0)
(5.84368e-05 -0.785489 0)
(0.00192561 -0.797064 0)
(0.00504335 -0.8019 0)
(0.00990776 -0.803808 0)
(0.0165324 -0.804038 0)
(0.025023 -0.803226 0)
(0.0354892 -0.801834 0)
(0.0480573 -0.800292 0)
(0.0628733 -0.799051 0)
(0.0801019 -0.798607 0)
(0.0999291 -0.799489 0)
(0.122559 -0.802235 0)
(0.148211 -0.807356 0)
(0.177111 -0.815306 0)
(0.209478 -0.826491 0)
(0.245521 -0.841325 0)
(0.285437 -0.860329 0)
(0.329414 -0.884231 0)
(0.37767 -0.914013 0)
(0.430506 -0.950772 0)
(0.488376 -0.995223 0)
(0.55186 -1.04659 0)
(0.000574507 -0.745005 0)
(0.000378204 -0.786223 0)
(0.00173311 -0.799068 0)
(0.00395366 -0.805362 0)
(0.00763879 -0.808864 0)
(0.0128324 -0.810806 0)
(0.0196719 -0.811824 0)
(0.0282828 -0.812389 0)
(0.0387955 -0.81294 0)
(0.0513466 -0.813944 0)
(0.0660791 -0.815908 0)
(0.0831448 -0.819375 0)
(0.102702 -0.824896 0)
(0.124913 -0.832985 0)
(0.149935 -0.844093 0)
(0.177912 -0.858612 0)
(0.208963 -0.876934 0)
(0.243181 -0.899561 0)
(0.280633 -0.92722 0)
(0.321397 -0.960934 0)
(0.365611 -1.00192 0)
(0.413575 -1.05111 0)
(0.465703 -1.10803 0)
(0.000997782 -0.745656 0)
(0.000930016 -0.786815 0)
(0.00196033 -0.800483 0)
(0.0035152 -0.807904 0)
(0.00623795 -0.812725 0)
(0.0102106 -0.816135 0)
(0.0155906 -0.818757 0)
(0.0225094 -0.821056 0)
(0.0310915 -0.823472 0)
(0.0414553 -0.82647 0)
(0.0537131 -0.830559 0)
(0.0679745 -0.836284 0)
(0.0843456 -0.844196 0)
(0.102927 -0.854805 0)
(0.123808 -0.868551 0)
(0.147058 -0.885802 0)
(0.172711 -0.906915 0)
(0.200762 -0.932355 0)
(0.23116 -0.962825 0)
(0.263834 -0.999368 0)
(0.298744 -1.0433 0)
(0.335984 -1.0958 0)
(0.375745 -1.15681 0)
(0.00138634 -0.746802 0)
(0.00157136 -0.787426 0)
(0.00240939 -0.80149 0)
(0.00347096 -0.809719 0)
(0.00540114 -0.815581 0)
(0.0083216 -0.820204 0)
(0.0123986 -0.824184 0)
(0.0177616 -0.827967 0)
(0.0245209 -0.831979 0)
(0.0327693 -0.836674 0)
(0.0425817 -0.842552 0)
(0.0540199 -0.850147 0)
(0.0671333 -0.860002 0)
(0.0819586 -0.872619 0)
(0.0985182 -0.888418 0)
(0.116808 -0.907738 0)
(0.136787 -0.930891 0)
(0.158359 -0.958287 0)
(0.18136 -0.990577 0)
(0.205569 -1.02878 0)
(0.230753 -1.07429 0)
(0.25676 -1.1285 0)
(0.283506 -1.1919 0)
(0.00170251 -0.74844 0)
(0.00220053 -0.788138 0)
(0.0029252 -0.802217 0)
(0.00361792 -0.810953 0)
(0.00488798 -0.817585 0)
(0.00689236 -0.823162 0)
(0.00979878 -0.828241 0)
(0.013727 -0.833236 0)
(0.0187662 -0.83855 0)
(0.0249791 -0.844613 0)
(0.0323993 -0.851904 0)
(0.0410375 -0.860941 0)
(0.0508842 -0.872249 0)
(0.0619112 -0.886315 0)
(0.0740732 -0.903541 0)
(0.087299 -0.924231 0)
(0.101477 -0.948645 0)
(0.11643 -0.977119 0)
(0.13189 -1.01022 0)
(0.147493 -1.04891 0)
(0.162807 -1.09457 0)
(0.177406 -1.14881 0)
(0.19089 -1.21265 0)
(0.0019329 -0.750509 0)
(0.00275087 -0.788979 0)
(0.00339741 -0.80275 0)
(0.00380619 -0.811715 0)
(0.00451954 -0.818857 0)
(0.00572301 -0.825134 0)
(0.00757656 -0.831047 0)
(0.0101841 -0.836974 0)
(0.0136105 -0.84328 0)
(0.0178856 -0.850365 0)
(0.0230001 -0.858676 0)
(0.0289134 -0.868704 0)
(0.0355568 -0.880952 0)
(0.0428379 -0.895888 0)
(0.0506437 -0.913892 0)
(0.058838 -0.935237 0)
(0.0672452 -0.960128 0)
(0.0756183 -0.988808 0)
(0.0835976 -1.02173 0)
(0.0906894 -1.05974 0)
(0.0962708 -1.10415 0)
(0.0996297 -1.15668 0)
(0.10003 -1.21882 0)
(0.00207866 -0.752921 0)
(0.0031829 -0.789931 0)
(0.00375643 -0.803139 0)
(0.00393837 -0.812086 0)
(0.00417709 -0.819498 0)
(0.00468106 -0.826228 0)
(0.00559151 -0.832716 0)
(0.00699314 -0.839293 0)
(0.00892507 -0.84628 0)
(0.0113825 -0.854036 0)
(0.0143152 -0.86297 0)
(0.0176337 -0.873539 0)
(0.0212124 -0.886213 0)
(0.0248959 -0.901439 0)
(0.0285054 -0.919577 0)
(0.0318377 -0.940866 0)
(0.0346617 -0.965461 0)
(0.0366722 -0.993499 0)
(0.0374304 -1.02529 0)
(0.0363374 -1.06152 0)
(0.0326027 -1.10336 0)
(0.0252409 -1.15248 0)
(0.013172 -1.2107 0)
(0.0021439 -0.755577 0)
(0.00348217 -0.790957 0)
(0.00396675 -0.803407 0)
(0.00396123 -0.812128 0)
(0.00379616 -0.819591 0)
(0.00369205 -0.826545 0)
(0.00376671 -0.833362 0)
(0.0040838 -0.840316 0)
(0.00465346 -0.847679 0)
(0.00543815 -0.855767 0)
(0.00635067 -0.86494 0)
(0.00725693 -0.875613 0)
(0.00797969 -0.888221 0)
(0.00830474 -0.903179 0)
(0.00799027 -0.920828 0)
(0.00676263 -0.94138 0)
(0.00434098 -0.964926 0)
(0.000375966 -0.991516 0)
(-0.0056368 -1.02131 0)
(-0.0143736 -1.05476 0)
(-0.0267467 -1.09281 0)
(-0.0439475 -1.13698 0)
(-0.0674367 -1.1892 0)
(0.00213557 -0.758377 0)
(0.00365411 -0.792006 0)
(0.00402805 -0.803566 0)
(0.003861 -0.811886 0)
(0.00335167 -0.819216 0)
(0.00272906 -0.826187 0)
(0.00207901 -0.833102 0)
(0.00144047 -0.840175 0)
(0.000794411 -0.847629 0)
(7.56526e-05 -0.855726 0)
(-0.000835399 -0.86478 0)
(-0.00211238 -0.875153 0)
(-0.00397537 -0.887237 0)
(-0.00669124 -0.901412 0)
(-0.0105616 -0.917993 0)
(-0.0159132 -0.937167 0)
(-0.0230912 -0.958973 0)
(-0.0324985 -0.983378 0)
(-0.044661 -1.01038 0)
(-0.0602953 -1.04018 0)
(-0.0803912 -1.07343 0)
(-0.106279 -1.11135 0)
(-0.139724 -1.15575 0)
(0.00208927 -0.76124 0)
(0.00373116 -0.793032 0)
(0.0039678 -0.803617 0)
(0.00365467 -0.811401 0)
(0.00285297 -0.818447 0)
(0.00180105 -0.825254 0)
(0.000540661 -0.832057 0)
(-0.000915511 -0.839015 0)
(-0.0026132 -0.846297 0)
(-0.00464433 -0.854111 0)
(-0.00715458 -0.862721 0)
(-0.0103449 -0.872434 0)
(-0.0144716 -0.88359 0)
(-0.0198438 -0.896524 0)
(-0.0268146 -0.91152 0)
(-0.0357648 -0.928742 0)
(-0.0470965 -0.948197 0)
(-0.0612543 -0.969766 0)
(-0.07878 -0.993286 0)
(-0.100398 -1.01873 0)
(-0.127113 -1.04639 0)
(-0.160308 -1.0771 0)
(-0.201917 -1.11229 0)
(0.00211482 -0.764125 0)
(0.00377471 -0.793982 0)
(0.00382755 -0.803551 0)
(0.00337683 -0.810699 0)
(0.00232566 -0.817357 0)
(0.000938313 -0.823848 0)
(-0.000813756 -0.830358 0)
(-0.00294171 -0.836993 0)
(-0.00551464 -0.843869 0)
(-0.00864711 -0.851146 0)
(-0.0125043 -0.859032 0)
(-0.017307 -0.867777 0)
(-0.0233356 -0.877662 0)
(-0.03093 -0.888973 0)
(-0.0404836 -0.901951 0)
(-0.0524253 -0.916734 0)
(-0.0672076 -0.933305 0)
(-0.0853122 -0.95148 0)
(-0.10729 -0.970966 0)
(-0.133845 -0.991506 0)
(-0.165943 -1.01305 0)
(-0.204922 -1.03596 0)
(-0.252722 -1.06115 0)
(0.00240168 -0.767085 0)
(0.00385314 -0.794752 0)
(0.0036304 -0.803339 0)
(0.00305533 -0.809795 0)
(0.00179152 -0.816016 0)
(0.000171087 -0.822075 0)
(-0.00194889 -0.828145 0)
(-0.00459168 -0.834279 0)
(-0.00785054 -0.84055 0)
(-0.0118567 -0.847073 0)
(-0.016788 -0.854002 0)
(-0.0228765 -0.861529 0)
(-0.0304157 -0.869874 0)
(-0.0397634 -0.879261 0)
(-0.0513397 -0.889882 0)
(-0.0656105 -0.901842 0)
(-0.0830708 -0.915102 0)
(-0.104236 -0.929436 0)
(-0.129662 -0.944457 0)
(-0.160016 -0.959713 0)
(-0.196181 -0.974842 0)
(-0.239368 -0.989739 0)
(-0.291365 -1.00473 0)
(0.00313923 -0.770354 0)
(0.00397817 -0.795111 0)
(0.00332584 -0.802951 0)
(0.00268537 -0.808702 0)
(0.00124623 -0.814503 0)
(-0.00048238 -0.820055 0)
(-0.00284036 -0.825564 0)
(-0.00583121 -0.831052 0)
(-0.00957481 -0.836557 0)
(-0.0142126 -0.842152 0)
(-0.0199278 -0.847942 0)
(-0.026956 -0.854063 0)
(-0.0355934 -0.860669 0)
(-0.0462036 -0.867919 0)
(-0.0592186 -0.875945 0)
(-0.0751265 -0.884811 0)
(-0.0944537 -0.894451 0)
(-0.117745 -0.904619 0)
(-0.14556 -0.914869 0)
(-0.178524 -0.924612 0)
(-0.217411 -0.933228 0)
(-0.263254 -0.940216 0)
(-0.317573 -0.945348 0)
(0.0043433 -0.774329 0)
(0.00403461 -0.794649 0)
(0.00275676 -0.802385 0)
(0.00223408 -0.807466 0)
(0.000645449 -0.812922 0)
(-0.0010299 -0.817914 0)
(-0.00348029 -0.822772 0)
(-0.00664684 -0.827501 0)
(-0.0106651 -0.832118 0)
(-0.0156809 -0.836658 0)
(-0.0218764 -0.841182 0)
(-0.0294833 -0.84577 0)
(-0.0387923 -0.850512 0)
(-0.0501619 -0.855496 0)
(-0.0640223 -0.86079 0)
(-0.080868 -0.866404 0)
(-0.101242 -0.872243 0)
(-0.12571 -0.878048 0)
(-0.154838 -0.88335 0)
(-0.189213 -0.887481 0)
(-0.229498 -0.889648 0)
(-0.276524 -0.889047 0)
(-0.33149 -0.885003 0)
(0.00562529 -0.779256 0)
(0.00380386 -0.792896 0)
(0.00167436 -0.801662 0)
(0.0016547 -0.806224 0)
(-6.92533e-05 -0.811401 0)
(-0.00148813 -0.815792 0)
(-0.00388816 -0.819933 0)
(-0.00705122 -0.823825 0)
(-0.0111281 -0.827471 0)
(-0.0162612 -0.830878 0)
(-0.0226248 -0.834062 0)
(-0.0304401 -0.837052 0)
(-0.0399858 -0.839874 0)
(-0.0516066 -0.842547 0)
(-0.06572 -0.845067 0)
(-0.0828118 -0.847384 0)
(-0.103426 -0.849366 0)
(-0.128139 -0.850739 0)
(-0.157523 -0.851038 0)
(-0.192138 -0.849574 0)
(-0.232551 -0.845467 0)
(-0.279405 -0.837725 0)
(-0.333576 -0.825364 0)
(0.0059413 -0.784605 0)
(0.00310644 -0.789688 0)
(-0.000197636 -0.800855 0)
(0.000912154 -0.805272 0)
(-0.000928478 -0.81008 0)
(-0.00188882 -0.813845 0)
(-0.00409302 -0.817218 0)
(-0.00707612 -0.820225 0)
(-0.0109979 -0.822859 0)
(-0.0159883 -0.825101 0)
(-0.0222071 -0.826928 0)
(-0.0298592 -0.828316 0)
(-0.0392057 -0.829231 0)
(-0.0505714 -0.829623 0)
(-0.0643519 -0.829416 0)
(-0.081013 -0.828495 0)
(-0.101086 -0.826677 0)
(-0.125145 -0.823673 0)
(-0.153767 -0.819029 0)
(-0.187504 -0.812082 0)
(-0.226861 -0.801946 0)
(-0.272324 -0.787555 0)
(-0.324491 -0.767759 0)
(0.0033312 -0.788755 0)
(0.00183999 -0.785528 0)
(-0.00301896 -0.800351 0)
(-3.05464e-05 -0.804844 0)
(-0.00185604 -0.809169 0)
(-0.0022596 -0.812231 0)
(-0.0041221 -0.814791 0)
(-0.00676164 -0.816892 0)
(-0.010328 -0.818515 0)
(-0.0149285 -0.819612 0)
(-0.0207013 -0.820121 0)
(-0.0278296 -0.819966 0)
(-0.0365513 -0.819054 0)
(-0.0471654 -0.81727 0)
(-0.0600392 -0.814466 0)
(-0.0756095 -0.810457 0)
(-0.0943831 -0.805005 0)
(-0.116922 -0.797788 0)
(-0.143807 -0.788366 0)
(-0.175599 -0.776121 0)
(-0.212786 -0.760227 0)
(-0.255768 -0.739652 0)
(-0.304936 -0.713218 0)
(-0.0050033 -0.78991 0)
(-0.000239149 -0.78131 0)
(-0.00652894 -0.800875 0)
(-0.0011237 -0.805089 0)
(-0.00281406 -0.808815 0)
(-0.0025508 -0.811071 0)
(-0.00397904 -0.812788 0)
(-0.00614392 -0.813996 0)
(-0.00918311 -0.814653 0)
(-0.0131744 -0.814678 0)
(-0.018228 -0.813964 0)
(-0.0244996 -0.812388 0)
(-0.0321978 -0.809799 0)
(-0.0415889 -0.806017 0)
(-0.0530041 -0.800827 0)
(-0.0668427 -0.793973 0)
(-0.0835772 -0.785151 0)
(-0.103747 -0.773995 0)
(-0.127933 -0.760054 0)
(-0.156724 -0.742756 0)
(-0.190647 -0.721367 0)
(-0.230107 -0.694975 0)
(-0.275416 -0.662505 0)
(-0.0217886 -0.787459 0)
(-0.00285681 -0.778158 0)
(-0.0106128 -0.8027 0)
(-0.00207859 -0.806209 0)
(-0.00371805 -0.80903 0)
(-0.00271364 -0.810431 0)
(-0.00365076 -0.811305 0)
(-0.00525016 -0.811672 0)
(-0.00763172 -0.811453 0)
(-0.0108378 -0.810526 0)
(-0.0149453 -0.808743 0)
(-0.020076 -0.80593 0)
(-0.0264012 -0.801882 0)
(-0.0341451 -0.796361 0)
(-0.0435921 -0.789085 0)
(-0.0550917 -0.779727 0)
(-0.0690674 -0.767909 0)
(-0.0860207 -0.753201 0)
(-0.106522 -0.735113 0)
(-0.131191 -0.713084 0)
(-0.160641 -0.686458 0)
(-0.195401 -0.654475 0)