/*--------------------------------*- C++ -*----------------------------------*\
| =========                 |                                                 |
| \\      /  F ield         | OpenFOAM: The Open Source CFD Toolbox           |
|  \\    /   O peration     | Version:  2212                                  |
|   \\  /    A nd           | Website:  www.openfoam.com                      |
|    \\/     M anipulation  |                                                 |
\*---------------------------------------------------------------------------*/
FoamFile
{
    version     2.0;
    format      ascii;
    arch        "LSB;label=32;scalar=64";
    class       volScalarField;
    location    "10/rightSolid";
    object      T;
}
// * * * * * * * * * * * * * * * * * * * * * * * * * * * * * * * * * * * * * //

dimensions      [0 0 0 1 0 0 0];

internalField   nonuniform List<scalar> 
130
(
300.01934
300.01147
300.00599
300.0028
300.00119
300.00047
300.00017
300.00006
300.00002
300.00001
300
300
300
300.07041
300.03959
300.01957
300.00869
300.00353
300.00133
300.00047
300.00016
300.00006
300.00002
300.00001
300.00001
300.00001
300.27196
300.14225
300.06565
300.02745
300.01058
300.00381
300.00131
300.00044
300.00016
300.00007
300.00004
300.00003
300.00003
300.91686
300.42858
300.18038
300.07004
300.02544
300.00875
300.0029
300.00097
300.00036
300.00017
300.00011
300.00009
300.00008
302.42693
300.94928
300.35565
300.12739
300.04366
300.0144
300.00465
300.00154
300.00059
300.0003
300.00021
300.00017
300.00015
302.42709
300.94937
300.3557
300.12741
300.04367
300.0144
300.00465
300.00155
300.00059
300.0003
300.00021
300.00017
300.00015
300.91701
300.4287
300.18045
300.07008
300.02546
300.00876
300.0029
300.00097
300.00036
300.00017
300.00011
300.00009
300.00008
300.27204
300.14232
300.06569
300.02748
300.01059
300.00382
300.00131
300.00044
300.00016
300.00007
300.00004
300.00003
300.00003
300.07044
300.03962
300.01959
300.00871
300.00354
300.00133
300.00047
300.00016
300.00006
300.00003
300.00001
300.00001
300.00001
300.01935
300.01148
300.006
300.00281
300.0012
300.00047
300.00017
300.00006
300.00002
300.00001
300
300
300
)
;

boundaryField
{
    maxX
    {
        type            zeroGradient;
    }
    minZ
    {
        type            zeroGradient;
    }
    maxZ
    {
        type            zeroGradient;
    }
    rightSolid_to_bottomWater
    {
        type            compressible::turbulentTemperatureRadCoupledMixed;
        refValue        nonuniform List<scalar> 
130
(
300.00012
300.00007
300.00004
300.00002
300.00001
300
300
300
300
300
300
300
300
300.00054
300.0003
300.00015
300.00006
300.00002
300.00001
300
300
300
300
300
300
300
300.00273
300.00139
300.00061
300.00024
300.00008
300.00003
300.00001
300
300
300
300
300
300
300.05129
300.01426
300.00379
300.00102
300.00028
300.00008
300.00002
300.00001
300
300
300
300
300
300.32535
300.03279
300.00621
300.0016
300.00046
300.00013
300.00004
300.00001
300
300
300
300
300
300.32538
300.0328
300.00622
300.0016
300.00046
300.00013
300.00004
300.00001
300
300
300
300
300
300.0513
300.01427
300.00379
300.00102
300.00028
300.00008
300.00002
300.00001
300
300
300
300
300
300.00273
300.00139
300.00061
300.00024
300.00008
300.00003
300.00001
300
300
300
300
300
300
300.00054
300.00031
300.00015
300.00006
300.00002
300.00001
300
300
300
300
300
300
300
300.00012
300.00007
300.00004
300.00002
300.00001
300
300
300
300
300
300
300
300
)
;
        refGradient     uniform 0;
        valueFraction   nonuniform List<scalar> 
130
(
0.0075140686
0.0075140686
0.0075140686
0.0075140686
0.0075140686
0.0075140686
0.0075140686
0.0075140686
0.0075140686
0.0075140686
0.0075140686
0.0075140686
0.0075140686
0.0075140686
0.0075140686
0.0075140686
0.0075140686
0.0075140686
0.0075140686
0.0075140686
0.0075140686
0.0075140686
0.0075140686
0.0075140686
0.0075140686
0.0075140686
0.0075140686
0.0075140686
0.0075140686
0.0075140686
0.0075140686
0.0075140686
0.0075140686
0.0075140686
0.0075140686
0.0075140686
0.0075140686
0.0075140686
0.0075140686
0.0075140686
0.0075140686
0.0075140686
0.0075140686
0.0075140686
0.0075140686
0.0075140686
0.0075140686
0.0075140686
0.0075140686
0.0075140686
0.0075140686
0.0075140686
0.0075140686
0.0075140686
0.0075140686
0.0075140686
0.0075140686
0.0075140686
0.0075140686
0.0075140686
0.0075140686
0.0075140686
0.0075140686
0.0075140686
0.0075140686
0.0075140686
0.0075140686
0.0075140686
0.0075140686
0.0075140686
0.0075140686
0.0075140686
0.0075140686
0.0075140686
0.0075140686
0.0075140686
0.0075140686
0.0075140686
0.0075140686
0.0075140686
0.0075140686
0.0075140686
0.0075140686
0.0075140686
0.0075140686
0.0075140686
0.0075140686
0.0075140686
0.0075140686
0.0075140686
0.0075140686
0.0075140686
0.0075140686
0.0075140686
0.0075140686
0.0075140686
0.0075140686
0.0075140686
0.0075140686
0.0075140686
0.0075140686
0.0075140686
0.0075140686
0.0075140686
0.0075140686
0.0075140686
0.0075140686
0.0075140686
0.0075140686
0.0075140686
0.0075140686
0.0075140686
0.0075140686
0.0075140686
0.0075140686
0.0075140686
0.0075140686
0.0075140686
0.0075140686
0.0075140686
0.0075140686
0.0075140686
0.0075140686
0.0075140686
0.0075140686
0.0075140686
0.0075140686
0.0075140686
0.0075140686
0.0075140686
)
;
        source          uniform 0;
        value           nonuniform List<scalar> 
130
(
300.01884
300.01116
300.00582
300.00272
300.00116
300.00045
300.00017
300.00006
300.00002
300.00001
300
300
300
300.06881
300.03865
300.01907
300.00846
300.00343
300.00129
300.00046
300.00016
300.00006
300.00002
300.00001
300.00001
300.00001
300.26648
300.1392
300.06414
300.02677
300.0103
300.00371
300.00127
300.00043
300.00016
300.00007
300.00004
300.00003
300.00003
300.90083
300.42039
300.17662
300.06845
300.02482
300.00852
300.00282
300.00094
300.00035
300.00017
300.00011
300.00009
300.00008
302.39068
300.93278
300.34878
300.12468
300.04265
300.01404
300.00453
300.0015
300.00057
300.00029
300.0002
300.00017
300.00015
302.39084
300.93287
300.34883
300.1247
300.04266
300.01404
300.00453
300.0015
300.00057
300.00029
300.0002
300.00017
300.00015
300.90097
300.42051
300.17669
300.06849
300.02483
300.00852
300.00282
300.00094
300.00035
300.00017
300.00011
300.00009
300.00008
300.26656
300.13927
300.06419
300.0268
300.01031
300.00371
300.00127
300.00043
300.00016
300.00007
300.00004
300.00003
300.00003
300.06884
300.03868
300.01909
300.00847
300.00344
300.00129
300.00046
300.00016
300.00006
300.00002
300.00001
300.00001
300.00001
300.01885
300.01117
300.00583
300.00273
300.00116
300.00046
300.00017
300.00006
300.00002
300.00001
300
300
300
)
;
        kappaMethod     solidThermo;
    }
    rightSolid_to_topAir
    {
        type            compressible::turbulentTemperatureRadCoupledMixed;
        refValue        nonuniform List<scalar> 
130
(
300.0078
300.00772
300.00731
300.00675
300.00615
300.00557
300.00504
300.00456
300.00413
300.00374
300.0034
300.0031
300.00284
300.02529
300.02524
300.02422
300.02274
300.02113
300.01955
300.01805
300.01665
300.01537
300.01419
300.01311
300.01212
300.01125
300.10064
300.09961
300.09501
300.08893
300.08252
300.07629
300.07042
300.06498
300.05996
300.05535
300.05112
300.04724
300.04381
300.36884
300.35922
300.33831
300.31363
300.28868
300.26489
300.24274
300.22231
300.20357
300.18642
300.17079
300.15658
300.14411
301.11862
301.05
300.96094
300.8703
300.78498
300.707
300.63658
300.57329
300.51653
300.46567
300.42016
300.37953
300.3444
301.11868
301.05005
300.96099
300.87035
300.78502
300.70704
300.63662
300.57332
300.51655
300.4657
300.42018
300.37955
300.34441
300.36887
300.35926
300.33834
300.31366
300.28872
300.26492
300.24276
300.22233
300.20359
300.18644
300.17081
300.1566
300.14413
300.10065
300.09962
300.09502
300.08895
300.08254
300.0763
300.07044
300.06499
300.05998
300.05536
300.05112
300.04725
300.04382
300.02529
300.02524
300.02422
300.02275
300.02114
300.01955
300.01805
300.01666
300.01537
300.01419
300.01311
300.01213
300.01125
300.0078
300.00772
300.00731
300.00675
300.00615
300.00557
300.00504
300.00456
300.00413
300.00374
300.0034
300.0031
300.00284
)
;
        refGradient     uniform 0;
        valueFraction   nonuniform List<scalar> 
130
(
0.00032132529
0.00032132529
0.00032132529
0.00032132529
0.00032132529
0.00032132529
0.00032132529
0.00032132529
0.00032132529
0.00032132529
0.00032132529
0.00032132529
0.00032132529
0.00032132529
0.00032132529
0.00032132529
0.00032132529
0.00032132529
0.00032132529
0.00032132529
0.00032132529
0.00032132529
0.00032132529
0.00032132529
0.00032132529
0.00032132529
0.00032132529
0.00032132529
0.00032132529
0.00032132529
0.00032132529
0.00032132529
0.00032132529
0.00032132529
0.00032132529
0.00032132529
0.00032132529
0.00032132529
0.00032132529
0.00032132529
0.00032132529
0.00032132529
0.00032132529
0.00032132529
0.00032132529
0.00032132529
0.00032132529
0.00032132529
0.00032132529
0.00032132529
0.00032132529
0.00032132529
0.00032132529
0.00032132529
0.00032132529
0.00032132529
0.00032132529
0.00032132529
0.00032132529
0.00032132529
0.00032132529
0.00032132529
0.00032132529
0.00032132529
0.00032132529
0.00032132529
0.00032132529
0.00032132529
0.00032132529
0.00032132529
0.00032132529
0.00032132529
0.00032132529
0.00032132529
0.00032132529
0.00032132529
0.00032132529
0.00032132529
0.00032132529
0.00032132529
0.00032132529
0.00032132529
0.00032132529
0.00032132529
0.00032132529
0.00032132529
0.00032132529
0.00032132529
0.00032132529
0.00032132529
0.00032132529
0.00032132529
0.00032132529
0.00032132529
0.00032132529
0.00032132529
0.00032132529
0.00032132529
0.00032132529
0.00032132529
0.00032132529
0.00032132529
0.00032132529
0.00032132529
0.00032132529
0.00032132529
0.00032132529
0.00032132529
0.00032132529
0.00032132529
0.00032132529
0.00032132529
0.00032132529
0.00032132529
0.00032132529
0.00032132529
0.00032132529
0.00032132529
0.00032132529
0.00032132529
0.00032132529
0.00032132529
0.00032132529
0.00032132529
0.00032132529
0.00032132529
0.00032132529
0.00032132529
0.00032132529
0.00032132529
)
;
        source          uniform 0;
        value           nonuniform List<scalar> 
130
(
300.01898
300.01124
300.00587
300.00274
300.00117
300.00046
300.00017
300.00006
300.00002
300.00001
300.00001
300
300
300.06932
300.03893
300.01922
300.00853
300.00346
300.0013
300.00047
300.00016
300.00006
300.00003
300.00002
300.00001
300.00001
300.26843
300.14023
300.06463
300.02699
300.0104
300.00376
300.0013
300.00045
300.00018
300.00009
300.00006
300.00005
300.00004
300.90709
300.42345
300.17798
300.06904
300.02509
300.00866
300.00292
300.00102
300.00042
300.00023
300.00016
300.00014
300.00013
302.4059
300.93963
300.35157
300.12585
300.04321
300.01436
300.00476
300.0017
300.00074
300.00044
300.00034
300.00029
300.00026
302.40606
300.93972
300.35162
300.12588
300.04321
300.01437
300.00476
300.0017
300.00074
300.00044
300.00034
300.00029
300.00026
300.90723
300.42356
300.17805
300.06908
300.0251
300.00867
300.00292
300.00102
300.00042
300.00023
300.00016
300.00014
300.00013
300.2685
300.1403
300.06468
300.02702
300.01041
300.00376
300.0013
300.00045
300.00018
300.00009
300.00006
300.00005
300.00004
300.06934
300.03896
300.01924
300.00854
300.00347
300.00131
300.00047
300.00016
300.00006
300.00003
300.00002
300.00001
300.00001
300.01899
300.01125
300.00587
300.00275
300.00117
300.00046
300.00017
300.00006
300.00002
300.00001
300.00001
300
300
)
;
        kappaMethod     solidThermo;
    }
    rightSolid_to_heater
    {
        type            compressible::turbulentTemperatureRadCoupledMixed;
        refValue        nonuniform List<scalar> 10(300.02826 300.10692 300.43873 301.66763 305.9673 305.96773 301.66793 300.43887 300.10697 300.02828);
        refGradient     uniform 0;
        valueFraction   nonuniform List<scalar> 10(0.50000003 0.50000003 0.50000003 0.50000003 0.50000003 0.50000003 0.50000003 0.50000003 0.50000003 0.50000003);
        source          uniform 0;
        value           nonuniform List<scalar> 10(300.02362 300.08812 300.35361 301.28744 304.18681 304.1871 301.28767 300.35371 300.08816 300.02364);
        kappaMethod     solidThermo;
    }
}


// ************************************************************************* //
