/*--------------------------------*- C++ -*----------------------------------*\
| =========                 |                                                 |
| \\      /  F ield         | OpenFOAM: The Open Source CFD Toolbox           |
|  \\    /   O peration     | Version:  2212                                  |
|   \\  /    A nd           | Website:  www.openfoam.com                      |
|    \\/     M anipulation  |                                                 |
\*---------------------------------------------------------------------------*/
FoamFile
{
    version     2.0;
    format      ascii;
    arch        "LSB;label=32;scalar=64";
    class       volScalarField;
    location    "10/heater";
    object      T;
}
// * * * * * * * * * * * * * * * * * * * * * * * * * * * * * * * * * * * * * //

dimensions      [0 0 0 1 0 0 0];

internalField   nonuniform List<scalar> 
80
(
300.04335
300.04102
300.03601
300.02826
300.16275
300.15486
300.13684
300.10692
300.65618
300.62917
300.56215
300.43873
302.39194
302.32019
302.11553
301.66763
466.78619
467.48726
467.48835
466.79071
408.7462
409.43054
409.42891
408.74332
364.08806
364.52855
364.51634
364.05751
334.09354
334.3157
334.2676
333.96484
316.5234
316.57407
316.41453
316.03942
307.71658
307.61017
307.19585
305.9673
466.78577
467.48697
467.48815
466.79064
408.74551
409.43019
409.4288
408.74354
364.08757
364.52847
364.51654
364.05811
334.09336
334.31588
334.26803
333.96562
316.52343
316.57436
316.415
316.04011
307.71675
307.61048
307.19625
305.96773
302.39189
302.32031
302.11576
301.66793
300.65613
300.62921
300.56225
300.43887
300.16273
300.15487
300.13687
300.10697
300.04334
300.04103
300.03603
300.02828
)
;

boundaryField
{
    minY
    {
        type            fixedValue;
        value           uniform 500;
    }
    minZ
    {
        type            zeroGradient;
    }
    maxZ
    {
        type            zeroGradient;
    }
    heater_to_topAir
    {
        type            compressible::turbulentTemperatureRadCoupledMixed;
        refValue        nonuniform List<scalar> 
40
(
300.00254
300.00465
300.00631
300.00737
300.00793
300.0147
300.02012
300.02372
300.03153
300.05858
300.08054
300.09508
300.11549
300.21562
300.29855
300.35379
300.3643
300.67823
300.94183
301.11969
300.36431
300.67825
300.94186
301.11974
300.11549
300.21562
300.29857
300.35382
300.03153
300.05858
300.08055
300.0951
300.00793
300.0147
300.02012
300.02372
300.00254
300.00465
300.00631
300.00737
)
;
        refGradient     uniform 0;
        valueFraction   nonuniform List<scalar> 
40
(
0.00032132529
0.00032132529
0.00032132529
0.00032132529
0.00032132529
0.00032132529
0.00032132529
0.00032132529
0.00032132529
0.00032132529
0.00032132529
0.00032132529
0.00032132529
0.00032132529
0.00032132529
0.00032132529
0.00032132529
0.00032132529
0.00032132529
0.00032132529
0.00032132529
0.00032132529
0.00032132529
0.00032132529
0.00032132529
0.00032132529
0.00032132529
0.00032132529
0.00032132529
0.00032132529
0.00032132529
0.00032132529
0.00032132529
0.00032132529
0.00032132529
0.00032132529
0.00032132529
0.00032132529
0.00032132529
0.00032132529
)
;
        source          uniform 0;
        value           nonuniform List<scalar> 
40
(
300.04258
300.0403
300.03538
300.02775
300.16035
300.15258
300.13483
300.10533
300.64818
300.62155
300.55538
300.43339
302.36865
302.29778
302.09533
301.65161
307.65943
307.55431
307.14376
305.92435
307.65961
307.55462
307.14416
305.92479
302.36859
302.2979
302.09556
301.65191
300.64813
300.62159
300.55549
300.43353
300.16032
300.15259
300.13486
300.10538
300.04257
300.0403
300.03539
300.02777
)
;
        kappaMethod     solidThermo;
    }
    heater_to_rightSolid
    {
        type            compressible::turbulentTemperatureRadCoupledMixed;
        refValue        nonuniform List<scalar> 10(300.01898 300.06933 300.26848 300.90726 302.40631 302.40648 300.90741 300.26855 300.06936 300.019);
        refGradient     uniform 0;
        valueFraction   nonuniform List<scalar> 10(0.49999997 0.49999997 0.49999997 0.49999997 0.49999997 0.49999997 0.49999997 0.49999997 0.49999997 0.49999997);
        source          uniform 0;
        value           nonuniform List<scalar> 10(300.02337 300.08734 300.35099 301.27964 304.16611 304.1664 301.27987 300.3511 300.08738 300.02339);
        kappaMethod     solidThermo;
    }
    heater_to_leftSolid
    {
        type            compressible::turbulentTemperatureRadCoupledMixed;
        refValue        nonuniform List<scalar> 10(300.00001 300.00003 300.00013 300.00057 300.00199 300.00199 300.00057 300.00013 300.00003 300.00001);
        refGradient     uniform 0;
        valueFraction   nonuniform List<scalar> 10(2.0832464e-05 2.0832464e-05 2.0832464e-05 2.0832464e-05 2.0832464e-05 2.0832464e-05 2.0832464e-05 2.0832464e-05 2.0832464e-05 2.0832464e-05);
        source          uniform 0;
        value           nonuniform List<scalar> 10(300.04259 300.16039 300.64837 302.36932 307.66162 307.66179 302.36926 300.64831 300.16037 300.04258);
        thicknessLayers List<scalar> 1(0.001);
        kappaLayers     List<scalar> 1(0.0005);
        kappaMethod     solidThermo;
    }
    heater_to_bottomWater
    {
        type            compressible::turbulentTemperatureRadCoupledMixed;
        refValue        nonuniform List<scalar> 
92
(
300.00023
300.00025
300.00023
300.00018
300.001
300.0011
300.00101
300.00081
300.00753
300.00685
300.00556
300.00441
302.43692
303.31695
303.67375
303.7158
301.2426
301.68608
301.86679
301.88439
300.59449
300.79401
300.86665
300.86937
300.26286
300.34401
300.36995
300.36912
300.12895
300.12895
300.1615
300.1615
300.16662
300.16662
300.16023
300.16023
306.83212
307.45551
303.44995
303.81725
301.63859
301.78329
300.72133
300.76321
300.29729
300.32535
306.83209
302.43694
303.31695
303.67375
307.45551
303.7158
303.44992
301.24261
301.68609
301.86679
303.81729
301.88441
301.63858
300.59449
300.79402
300.86666
301.78334
300.86939
300.72133
300.26286
300.34402
300.36996
300.76326
300.36914
300.29729
300.12895
300.16151
300.16663
300.32538
300.16025
300.12895
300.16151
300.16663
300.16025
300.00753
300.00685
300.00556
300.00442
300.001
300.0011
300.00101
300.00081
300.00023
300.00025
300.00023
300.00018
)
;
        refGradient     uniform 0;
        valueFraction   nonuniform List<scalar> 
92
(
0.0075140686
0.0075140686
0.0075140686
0.0075140686
0.0075140686
0.0075140686
0.0075140686
0.0075140686
0.0075140686
0.0075140686
0.0075140686
0.0075140686
0.0075140686
0.0075140686
0.0075140686
0.0075140686
0.0075140686
0.0075140686
0.0075140686
0.0075140686
0.0075140686
0.0075140686
0.0075140686
0.0075140686
0.0075140686
0.0075140686
0.0075140686
0.0075140686
0.0075140686
0.0075140686
0.0075140686
0.0075140686
0.0075140686
0.0075140686
0.0075140686
0.0075140686
0.0075140679
0.0075140679
0.0075140679
0.0075140679
0.0075140679
0.0075140679
0.0075140679
0.0075140679
0.0075140679
0.0075140679
0.0075140679
0.0075140686
0.0075140686
0.0075140686
0.0075140679
0.0075140686
0.0075140679
0.0075140686
0.0075140686
0.0075140686
0.0075140679
0.0075140686
0.0075140679
0.0075140686
0.0075140686
0.0075140686
0.0075140679
0.0075140686
0.0075140679
0.0075140686
0.0075140686
0.0075140686
0.0075140679
0.0075140686
0.0075140679
0.0075140686
0.0075140686
0.0075140686
0.0075140679
0.0075140686
0.0075140686
0.0075140686
0.0075140686
0.0075140686
0.0075140686
0.0075140686
0.0075140686
0.0075140686
0.0075140686
0.0075140686
0.0075140686
0.0075140686
0.0075140686
0.0075140686
0.0075140686
0.0075140686
)
;
        source          uniform 0;
        value           nonuniform List<scalar> 
92
(
300.04227
300.04001
300.03512
300.02755
300.1592
300.15148
300.13386
300.10457
300.64356
300.61711
300.5514
300.43028
465.50605
466.2082
466.21196
465.52012
407.82366
408.50543
408.5052
407.82569
363.47254
363.91033
363.89892
363.44468
333.71793
333.93845
333.89144
333.5924
302.35253
316.31378
302.2824
316.36444
302.08141
316.20769
301.64082
315.83809
465.53907
465.54822
407.84024
407.84021
363.48039
363.45155
333.72137
333.59536
316.31504
315.83933
465.53865
465.50563
466.20792
466.21177
465.54815
465.52005
407.83956
407.82297
408.50508
408.50509
407.84043
407.8259
363.4799
363.47206
363.91026
363.89912
363.45215
363.44528
333.7212
333.71775
333.93863
333.89187
333.59613
333.59317
316.31508
316.31382
316.36473
316.20815
315.84003
315.83879
302.35248
302.28251
302.08164
301.64111
300.64351
300.61715
300.5515
300.43041
300.15917
300.15149
300.1339
300.10462
300.04226
300.04001
300.03514
300.02757
)
;
        kappaMethod     solidThermo;
    }
}


// ************************************************************************* //
