/*--------------------------------*- C++ -*----------------------------------*\
| =========                 |                                                 |
| \\      /  F ield         | OpenFOAM: The Open Source CFD Toolbox           |
|  \\    /   O peration     | Version:  2212                                  |
|   \\  /    A nd           | Website:  www.openfoam.com                      |
|    \\/     M anipulation  |                                                 |
\*---------------------------------------------------------------------------*/
FoamFile
{
    version     2.0;
    format      ascii;
    arch        "LSB;label=32;scalar=64";
    class       volScalarField;
    location    "10/bottomWater";
    object      p;
}
// * * * * * * * * * * * * * * * * * * * * * * * * * * * * * * * * * * * * * //

dimensions      [1 -1 -2 0 0 0 0];

internalField   nonuniform List<scalar> 
1460
(
353.16387
353.16353
353.16336
353.16324
353.16312
353.163
353.16289
353.16278
353.16266
353.16253
353.16238
353.16223
353.16205
353.16186
353.16167
353.16149
353.16133
353.16118
353.16106
353.16096
353.16086
353.16077
353.16067
353.16058
353.16049
353.1604
353.16031
353.16022
353.16013
353.16004
274.68363
274.68345
274.68331
274.68321
274.6831
274.68299
274.68288
274.68277
274.68265
274.68253
274.68239
274.68223
274.68205
274.68186
274.68166
274.68149
274.68132
274.68118
274.68106
274.68095
274.68086
274.68076
274.68067
274.68058
274.68049
274.6804
274.68031
274.68022
274.68013
274.68004
196.20367
196.20348
196.20334
196.20323
196.20312
196.203
196.20289
196.20278
196.20266
196.20253
196.20239
196.20223
196.20205
196.20186
196.20167
196.20149
196.20133
196.20118
196.20106
196.20096
196.20086
196.20077
196.20067
196.20058
196.20049
196.2004
196.20031
196.20022
196.20013
196.20004
117.72363
117.72345
117.72331
117.72321
117.7231
117.72299
117.72288
117.72277
117.72265
117.72253
117.72239
117.72223
117.72205
117.72186
117.72166
117.72149
117.72132
117.72118
117.72106
117.72095
117.72086
117.72076
117.72067
117.72058
117.72049
117.7204
117.72031
117.72022
117.72013
117.72004
39.243869
39.243528
39.243364
39.243237
39.243118
39.243003
39.24289
39.242776
39.242655
39.242526
39.242384
39.242226
39.24205
39.241856
39.241665
39.241487
39.241327
39.241185
39.241063
39.240957
39.240859
39.240765
39.240674
39.240583
39.240493
39.240403
39.240314
39.240224
39.240134
39.240044
353.16366
353.16344
353.16331
353.1632
353.1631
353.163
353.16289
353.16278
353.16266
353.16254
353.16239
353.16222
353.16202
353.16177
353.16158
353.16141
353.16127
353.16113
353.16103
353.16094
353.16085
353.16076
353.16068
353.16059
353.1605
353.16041
353.16032
353.16023
353.16014
353.16004
274.68343
274.68336
274.68327
274.68318
274.68308
274.68298
274.68288
274.68278
274.68266
274.68254
274.68239
274.68222
274.68202
274.68177
274.68157
274.68141
274.68126
274.68113
274.68103
274.68094
274.68085
274.68076
274.68068
274.68059
274.6805
274.68041
274.68032
274.68023
274.68014
274.68004
196.20346
196.2034
196.2033
196.2032
196.2031
196.203
196.20289
196.20278
196.20267
196.20254
196.20239
196.20222
196.20202
196.20177
196.20157
196.20141
196.20127
196.20113
196.20103
196.20094
196.20085
196.20077
196.20068
196.20059
196.2005
196.20041
196.20032
196.20023
196.20014
196.20004
117.72343
117.72336
117.72327
117.72318
117.72308
117.72298
117.72288
117.72278
117.72266
117.72254
117.72239
117.72222
117.72202
117.72177
117.72157
117.72141
117.72126
117.72113
117.72103
117.72094
117.72085
117.72076
117.72068
117.72059
117.7205
117.72041
117.72032
117.72023
117.72014
117.72004
39.243664
39.24344
39.243308
39.243203
39.243099
39.242995
39.24289
39.242781
39.242665
39.242536
39.24239
39.242218
39.242015
39.241772
39.241575
39.241415
39.241269
39.241135
39.241029
39.240939
39.240852
39.240764
39.240676
39.240586
39.240497
39.240407
39.240316
39.240226
39.240135
39.240045
353.16365
353.16344
353.16331
353.16321
353.16312
353.16302
353.16292
353.16282
353.16272
353.16261
353.16249
353.16234
353.16215
353.16183
353.16159
353.16139
353.16122
353.16106
353.16098
353.16091
353.16084
353.16076
353.16068
353.16059
353.1605
353.16041
353.16032
353.16023
353.16014
353.16005
274.68342
274.68336
274.68327
274.68319
274.6831
274.68301
274.68292
274.68282
274.68272
274.68262
274.6825
274.68235
274.68215
274.68183
274.68158
274.68138
274.68121
274.68105
274.68097
274.68092
274.68085
274.68077
274.68068
274.68059
274.6805
274.68041
274.68032
274.68023
274.68014
274.68005
196.20345
196.20339
196.2033
196.20321
196.20311
196.20302
196.20292
196.20283
196.20272
196.20262
196.2025
196.20235
196.20215
196.20183
196.20158
196.20139
196.20121
196.20105
196.20098
196.20092
196.20085
196.20077
196.20068
196.20059
196.2005
196.20041
196.20032
196.20023
196.20014
196.20005
117.72342
117.72336
117.72327
117.72319
117.7231
117.72301
117.72292
117.72282
117.72272
117.72262
117.7225
117.72235
117.72215
117.72183
117.72158
117.72138
117.72121
117.72105
117.72097
117.72092
117.72085
117.72077
117.72068
117.72059
117.7205
117.72041
117.72032
117.72023
117.72014
117.72005
39.243653
39.243439
39.243313
39.243213
39.243115
39.243017
39.242921
39.242823
39.242722
39.242613
39.24249
39.242339
39.242148
39.241833
39.241588
39.241392
39.241217
39.241057
39.24098
39.240915
39.240842
39.240762
39.240677
39.240588
39.240499
39.240408
39.240318
39.240227
39.240136
39.240045
353.16361
353.16341
353.16329
353.1632
353.16311
353.16302
353.16294
353.16285
353.16276
353.16266
353.16254
353.16235
353.16198
353.16119
353.16128
353.16119
353.16104
353.16078
353.16087
353.16086
353.16082
353.16076
353.16068
353.16059
353.1605
353.16041
353.16032
353.16023
353.16014
353.16005
274.68338
274.68333
274.68325
274.68317
274.68309
274.68301
274.68293
274.68285
274.68277
274.68267
274.68256
274.68237
274.68196
274.68103
274.6812
274.68116
274.68101
274.68072
274.68085
274.68086
274.68083
274.68076
274.68068
274.6806
274.68051
274.68041
274.68032
274.68023
274.68014
274.68005
196.20341
196.20336
196.20328
196.20319
196.20311
196.20302
196.20294
196.20285
196.20277
196.20267
196.20256
196.20237
196.20196
196.20104
196.20121
196.20117
196.20101
196.20073
196.20086
196.20087
196.20083
196.20076
196.20068
196.20059
196.2005
196.20041
196.20032
196.20023
196.20014
196.20005
117.72338
117.72333
117.72325
117.72317
117.72309
117.72301
117.72293
117.72285
117.72277
117.72267
117.72256
117.72237
117.72196
117.72103
117.7212
117.72116
117.72101
117.72072
117.72085
117.72086
117.72083
117.72076
117.72068
117.7206
117.72051
117.72041
117.72032
117.72023
117.72014
117.72005
39.243614
39.243407
39.243291
39.2432
39.24311
39.243022
39.242935
39.242849
39.242761
39.242663
39.242544
39.242351
39.241982
39.241188
39.241276
39.241192
39.241039
39.240781
39.240871
39.240863
39.240821
39.240757
39.240679
39.240593
39.240504
39.240413
39.240321
39.24023
39.240138
39.240046
353.16361
353.16341
353.16329
353.16321
353.16312
353.16304
353.16297
353.16291
353.16286
353.16283
353.16284
353.16288
353.16302
353.16035
353.16081
353.1608
353.16083
353.16078
353.16069
353.1606
353.16051
353.16042
353.16032
353.16023
353.16014
353.16005
274.68338
274.68333
274.68325
274.68318
274.68311
274.68303
274.68297
274.68291
274.68287
274.68285
274.68287
274.68294
274.68315
274.68021
274.68081
274.68081
274.68085
274.6808
274.68071
274.68061
274.68051
274.68042
274.68032
274.68023
274.68014
274.68005
196.20341
196.20336
196.20328
196.2032
196.20312
196.20305
196.20297
196.20291
196.20287
196.20285
196.20287
196.20293
196.20314
196.20023
196.20082
196.20082
196.20085
196.2008
196.20071
196.20061
196.20051
196.20042
196.20032
196.20023
196.20014
196.20005
117.72338
117.72333
117.72325
117.72318
117.72311
117.72303
117.72297
117.72291
117.72287
117.72285
117.72287
117.72294
117.72315
117.72021
117.72081
117.72081
117.72085
117.7208
117.72071
117.72061
117.72051
117.72042
117.72032
117.72023
117.72014
117.72005
39.243613
39.243408
39.243295
39.243208
39.243124
39.243044
39.242972
39.242909
39.242861
39.242833
39.24284
39.242878
39.243017
39.240347
39.240811
39.240801
39.240832
39.240779
39.240695
39.240603
39.24051
39.240417
39.240324
39.240231
39.240139
39.240047
353.16361
353.16341
353.16329
353.16321
353.16312
353.16304
353.16297
353.16291
353.16286
353.16283
353.16284
353.16288
353.16302
353.16035
353.16081
353.1608
353.16083
353.16078
353.16069
353.1606
353.16051
353.16042
353.16032
353.16023
353.16014
353.16005
274.68338
274.68333
274.68325
274.68318
274.68311
274.68303
274.68297
274.68291
274.68287
274.68285
274.68287
274.68294
274.68315
274.68021
274.68081
274.68081
274.68085
274.6808
274.68071
274.68061
274.68051
274.68042
274.68032
274.68023
274.68014
274.68005
196.20341
196.20336
196.20328
196.2032
196.20312
196.20305
196.20297
196.20291
196.20287
196.20285
196.20287
196.20293
196.20314
196.20023
196.20082
196.20082
196.20085
196.2008
196.20071
196.20061
196.20051
196.20042
196.20032
196.20023
196.20014
196.20005
117.72338
117.72333
117.72325
117.72318
117.72311
117.72303
117.72297
117.72291
117.72287
117.72285
117.72287
117.72294
117.72315
117.72021
117.72081
117.72081
117.72085
117.7208
117.72071
117.72061
117.72051
117.72042
117.72032
117.72023
117.72014
117.72005
39.243613
39.243408
39.243295
39.243208
39.243124
39.243044
39.242972
39.242909
39.242861
39.242833
39.24284
39.242878
39.243017
39.240347
39.240811
39.240801
39.240832
39.240779
39.240695
39.240603
39.24051
39.240417
39.240324
39.240231
39.240139
39.240047
353.16361
353.16341
353.16329
353.1632
353.16311
353.16302
353.16294
353.16285
353.16276
353.16266
353.16254
353.16235
353.16198
353.16119
353.16128
353.16119
353.16104
353.16078
353.16087
353.16086
353.16082
353.16076
353.16068
353.16059
353.1605
353.16041
353.16032
353.16023
353.16014
353.16005
274.68338
274.68333
274.68325
274.68317
274.68309
274.68301
274.68293
274.68285
274.68277
274.68267
274.68256
274.68237
274.68196
274.68103
274.6812
274.68116
274.68101
274.68072
274.68085
274.68086
274.68083
274.68076
274.68068
274.6806
274.68051
274.68041
274.68032
274.68023
274.68014
274.68005
196.20341
196.20336
196.20328
196.20319
196.20311
196.20302
196.20294
196.20285
196.20277
196.20267
196.20256
196.20237
196.20196
196.20104
196.20121
196.20117
196.20101
196.20073
196.20086
196.20087
196.20083
196.20076
196.20068
196.20059
196.2005
196.20041
196.20032
196.20023
196.20014
196.20005
117.72338
117.72333
117.72325
117.72317
117.72309
117.72301
117.72293
117.72285
117.72277
117.72267
117.72256
117.72237
117.72196
117.72103
117.7212
117.72116
117.72101
117.72072
117.72085
117.72086
117.72083
117.72076
117.72068
117.7206
117.72051
117.72041
117.72032
117.72023
117.72014
117.72005
39.243614
39.243407
39.243291
39.2432
39.24311
39.243022
39.242935
39.242849
39.242761
39.242663
39.242544
39.242351
39.241982
39.241188
39.241276
39.241192
39.241039
39.240781
39.240871
39.240863
39.240821
39.240757
39.240679
39.240593
39.240504
39.240413
39.240321
39.24023
39.240138
39.240046
353.16365
353.16344
353.16331
353.16321
353.16312
353.16302
353.16292
353.16282
353.16272
353.16261
353.16249
353.16234
353.16215
353.16183
353.16159
353.16139
353.16122
353.16106
353.16098
353.16091
353.16084
353.16076
353.16068
353.16059
353.1605
353.16041
353.16032
353.16023
353.16014
353.16005
274.68342
274.68336
274.68327
274.68319
274.6831
274.68301
274.68292
274.68282
274.68272
274.68262
274.6825
274.68235
274.68215
274.68183
274.68158
274.68138
274.68121
274.68105
274.68097
274.68092
274.68085
274.68077
274.68068
274.68059
274.6805
274.68041
274.68032
274.68023
274.68014
274.68005
196.20345
196.20339
196.2033
196.20321
196.20311
196.20302
196.20292
196.20283
196.20272
196.20262
196.2025
196.20235
196.20215
196.20183
196.20158
196.20139
196.20121
196.20105
196.20098
196.20092
196.20085
196.20077
196.20068
196.20059
196.2005
196.20041
196.20032
196.20023
196.20014
196.20005
117.72342
117.72336
117.72327
117.72319
117.7231
117.72301
117.72292
117.72282
117.72272
117.72262
117.7225
117.72235
117.72215
117.72183
117.72158
117.72138
117.72121
117.72105
117.72097
117.72092
117.72085
117.72077
117.72068
117.72059
117.7205
117.72041
117.72032
117.72023
117.72014
117.72005
39.243653
39.243439
39.243313
39.243213
39.243115
39.243017
39.242921
39.242823
39.242722
39.242613
39.24249
39.242339
39.242148
39.241833
39.241588
39.241392
39.241217
39.241057
39.24098
39.240915
39.240842
39.240762
39.240677
39.240588
39.240499
39.240408
39.240318
39.240227
39.240136
39.240045
353.16366
353.16344
353.16331
353.1632
353.1631
353.163
353.16289
353.16278
353.16266
353.16254
353.16239
353.16222
353.16202
353.16177
353.16158
353.16141
353.16127
353.16113
353.16103
353.16094
353.16085
353.16076
353.16068
353.16059
353.1605
353.16041
353.16032
353.16023
353.16014
353.16004
274.68343
274.68336
274.68327
274.68318
274.68308
274.68298
274.68288
274.68278
274.68266
274.68254
274.68239
274.68222
274.68202
274.68177
274.68157
274.68141
274.68126
274.68113
274.68103
274.68094
274.68085
274.68076
274.68068
274.68059
274.6805
274.68041
274.68032
274.68023
274.68014
274.68004
196.20346
196.2034
196.2033
196.2032
196.2031
196.203
196.20289
196.20278
196.20267
196.20254
196.20239
196.20222
196.20202
196.20177
196.20157
196.20141
196.20127
196.20113
196.20103
196.20094
196.20085
196.20077
196.20068
196.20059
196.2005
196.20041
196.20032
196.20023
196.20014
196.20004
117.72343
117.72336
117.72327
117.72318
117.72308
117.72298
117.72288
117.72278
117.72266
117.72254
117.72239
117.72222
117.72202
117.72177
117.72157
117.72141
117.72126
117.72113
117.72103
117.72094
117.72085
117.72076
117.72068
117.72059
117.7205
117.72041
117.72032
117.72023
117.72014
117.72004
39.243664
39.24344
39.243308
39.243203
39.243099
39.242995
39.24289
39.242781
39.242665
39.242536
39.24239
39.242218
39.242015
39.241772
39.241575
39.241415
39.241269
39.241135
39.241029
39.240939
39.240852
39.240764
39.240676
39.240586
39.240497
39.240407
39.240316
39.240226
39.240135
39.240045
353.16387
353.16353
353.16336
353.16324
353.16312
353.163
353.16289
353.16278
353.16266
353.16253
353.16238
353.16223
353.16205
353.16186
353.16167
353.16149
353.16133
353.16118
353.16106
353.16096
353.16086
353.16077
353.16067
353.16058
353.16049
353.1604
353.16031
353.16022
353.16013
353.16004
274.68363
274.68345
274.68331
274.68321
274.6831
274.68299
274.68288
274.68277
274.68265
274.68253
274.68239
274.68223
274.68205
274.68186
274.68166
274.68149
274.68132
274.68118
274.68106
274.68095
274.68086
274.68076
274.68067
274.68058
274.68049
274.6804
274.68031
274.68022
274.68013
274.68004
196.20367
196.20348
196.20334
196.20323
196.20312
196.203
196.20289
196.20278
196.20266
196.20253
196.20239
196.20223
196.20205
196.20186
196.20167
196.20149
196.20133
196.20118
196.20106
196.20096
196.20086
196.20077
196.20067
196.20058
196.20049
196.2004
196.20031
196.20022
196.20013
196.20004
117.72363
117.72345
117.72331
117.72321
117.7231
117.72299
117.72288
117.72277
117.72265
117.72253
117.72239
117.72223
117.72205
117.72186
117.72166
117.72149
117.72132
117.72118
117.72106
117.72095
117.72086
117.72076
117.72067
117.72058
117.72049
117.7204
117.72031
117.72022
117.72013
117.72004
39.243869
39.243528
39.243364
39.243237
39.243118
39.243003
39.24289
39.242776
39.242655
39.242526
39.242384
39.242226
39.24205
39.241856
39.241665
39.241487
39.241327
39.241185
39.241063
39.240957
39.240859
39.240765
39.240674
39.240583
39.240493
39.240403
39.240314
39.240224
39.240134
39.240044
)
;

boundaryField
{
    minX
    {
        type            calculated;
        value           nonuniform List<scalar> 
50
(
353.16387
274.68363
196.20367
117.72363
39.243869
353.16366
274.68343
196.20346
117.72343
39.243664
353.16365
274.68342
196.20345
117.72342
39.243653
353.16361
274.68338
196.20341
117.72338
39.243614
353.16361
274.68338
196.20341
117.72338
39.243613
353.16361
274.68338
196.20341
117.72338
39.243613
353.16361
274.68338
196.20341
117.72338
39.243614
353.16365
274.68342
196.20345
117.72342
39.243653
353.16366
274.68343
196.20346
117.72343
39.243664
353.16387
274.68363
196.20367
117.72363
39.243869
)
;
    }
    maxX
    {
        type            calculated;
        value           nonuniform List<scalar> 
50
(
353.16
274.68
196.2
117.72
39.24
353.16
274.68
196.2
117.72
39.24
353.16
274.68
196.2
117.72
39.24
353.16
274.68
196.2
117.72
39.24
353.16
274.68
196.2
117.72
39.24
353.16
274.68
196.2
117.72
39.24
353.16
274.68
196.2
117.72
39.24
353.16
274.68
196.2
117.72
39.24
353.16
274.68
196.2
117.72
39.24
353.16
274.68
196.2
117.72
39.24
)
;
    }
    minY
    {
        type            calculated;
        value           nonuniform List<scalar> 
292
(
392.40387
392.40366
392.40365
392.40361
392.40361
392.40361
392.40361
392.40365
392.40366
392.40387
392.40353
392.40344
392.40344
392.40341
392.40341
392.40341
392.40341
392.40344
392.40344
392.40353
392.40336
392.40331
392.40331
392.40329
392.40329
392.40329
392.40329
392.40331
392.40331
392.40336
392.40324
392.4032
392.40321
392.4032
392.40321
392.40321
392.4032
392.40321
392.4032
392.40324
392.40312
392.4031
392.40312
392.40311
392.40312
392.40312
392.40311
392.40312
392.4031
392.40312
392.403
392.403
392.40302
392.40302
392.40304
392.40304
392.40302
392.40302
392.403
392.403
392.40289
392.40289
392.40292
392.40294
392.40297
392.40297
392.40294
392.40292
392.40289
392.40289
392.40278
392.40278
392.40282
392.40285
392.40291
392.40291
392.40285
392.40282
392.40278
392.40278
392.40266
392.40266
392.40272
392.40276
392.40286
392.40286
392.40276
392.40272
392.40266
392.40266
392.40253
392.40254
392.40261
392.40266
392.40283
392.40283
392.40266
392.40261
392.40254
392.40253
392.40238
392.40239
392.40249
392.40254
392.40284
392.40284
392.40254
392.40249
392.40239
392.40238
392.40223
392.40222
392.40234
392.40235
392.40288
392.40288
392.40235
392.40234
392.40222
392.40223
392.40205
392.40202
392.40215
392.40198
392.40302
392.40302
392.40198
392.40215
392.40202
392.40205
392.40186
392.40177
392.40183
392.40119
392.40119
392.40183
392.40177
392.40186
392.40167
392.40158
392.40159
392.40128
392.40128
392.40159
392.40158
392.40167
392.40149
392.40141
392.40139
392.40119
392.40119
392.40139
392.40141
392.40149
392.40133
392.40127
392.40122
392.40104
392.40104
392.40122
392.40127
392.40133
392.40118
392.40113
392.40106
392.40078
392.40035
392.40035
392.40078
392.40106
392.40113
392.40118
392.40106
392.40103
392.40098
392.40087
392.40081
392.40081
392.40087
392.40098
392.40103
392.40106
392.40096
392.40094
392.40091
392.40086
392.4008
392.4008
392.40086
392.40091
392.40094
392.40096
392.40086
392.40085
392.40084
392.40082
392.40083
392.40083
392.40082
392.40084
392.40085
392.40086
392.40077
392.40076
392.40076
392.40076
392.40078
392.40078
392.40076
392.40076
392.40076
392.40077
392.40067
392.40068
392.40068
392.40068
392.40069
392.40069
392.40068
392.40068
392.40068
392.40067
392.40058
392.40059
392.40059
392.40059
392.4006
392.4006
392.40059
392.40059
392.40059
392.40058
392.40049
392.4005
392.4005
392.4005
392.40051
392.40051
392.4005
392.4005
392.4005
392.40049
392.4004
392.40041
392.40041
392.40041
392.40042
392.40042
392.40041
392.40041
392.40041
392.4004
392.40031
392.40032
392.40032
392.40032
392.40032
392.40032
392.40032
392.40032
392.40032
392.40031
392.40022
392.40023
392.40023
392.40023
392.40023
392.40023
392.40023
392.40023
392.40023
392.40022
392.40013
392.40014
392.40014
392.40014
392.40014
392.40014
392.40014
392.40014
392.40014
392.40013
392.40004
392.40004
392.40005
392.40005
392.40005
392.40005
392.40005
392.40005
392.40004
392.40004
)
;
    }
    minZ
    {
        type            calculated;
        value           nonuniform List<scalar> 
150
(
353.16387
274.68363
196.20367
117.72363
39.243869
353.16353
274.68345
196.20348
117.72345
39.243528
353.16336
274.68331
196.20334
117.72331
39.243364
353.16324
274.68321
196.20323
117.72321
39.243237
353.16312
274.6831
196.20312
117.7231
39.243118
353.163
274.68299
196.203
117.72299
39.243003
353.16289
274.68288
196.20289
117.72288
39.24289
353.16278
274.68277
196.20278
117.72277
39.242776
353.16266
274.68265
196.20266
117.72265
39.242655
353.16253
274.68253
196.20253
117.72253
39.242526
353.16238
274.68239
196.20239
117.72239
39.242384
353.16223
274.68223
196.20223
117.72223
39.242226
353.16205
274.68205
196.20205
117.72205
39.24205
353.16186
274.68186
196.20186
117.72186
39.241856
353.16167
274.68166
196.20167
117.72166
39.241665
353.16149
274.68149
196.20149
117.72149
39.241487
353.16133
274.68132
196.20133
117.72132
39.241327
353.16118
274.68118
196.20118
117.72118
39.241185
353.16106
274.68106
196.20106
117.72106
39.241063
353.16096
274.68095
196.20096
117.72095
39.240957
353.16086
274.68086
196.20086
117.72086
39.240859
353.16077
274.68076
196.20077
117.72076
39.240765
353.16067
274.68067
196.20067
117.72067
39.240674
353.16058
274.68058
196.20058
117.72058
39.240583
353.16049
274.68049
196.20049
117.72049
39.240493
353.1604
274.6804
196.2004
117.7204
39.240403
353.16031
274.68031
196.20031
117.72031
39.240314
353.16022
274.68022
196.20022
117.72022
39.240224
353.16013
274.68013
196.20013
117.72013
39.240134
353.16004
274.68004
196.20004
117.72004
39.240044
)
;
    }
    maxZ
    {
        type            calculated;
        value           nonuniform List<scalar> 
150
(
353.16387
274.68363
196.20367
117.72363
39.243869
353.16353
274.68345
196.20348
117.72345
39.243528
353.16336
274.68331
196.20334
117.72331
39.243364
353.16324
274.68321
196.20323
117.72321
39.243237
353.16312
274.6831
196.20312
117.7231
39.243118
353.163
274.68299
196.203
117.72299
39.243003
353.16289
274.68288
196.20289
117.72288
39.24289
353.16278
274.68277
196.20278
117.72277
39.242776
353.16266
274.68265
196.20266
117.72265
39.242655
353.16253
274.68253
196.20253
117.72253
39.242526
353.16238
274.68239
196.20239
117.72239
39.242384
353.16223
274.68223
196.20223
117.72223
39.242226
353.16205
274.68205
196.20205
117.72205
39.24205
353.16186
274.68186
196.20186
117.72186
39.241856
353.16167
274.68166
196.20167
117.72166
39.241665
353.16149
274.68149
196.20149
117.72149
39.241487
353.16133
274.68132
196.20133
117.72132
39.241327
353.16118
274.68118
196.20118
117.72118
39.241185
353.16106
274.68106
196.20106
117.72106
39.241063
353.16096
274.68095
196.20096
117.72095
39.240957
353.16086
274.68086
196.20086
117.72086
39.240859
353.16077
274.68076
196.20077
117.72076
39.240765
353.16067
274.68067
196.20067
117.72067
39.240674
353.16058
274.68058
196.20058
117.72058
39.240583
353.16049
274.68049
196.20049
117.72049
39.240493
353.1604
274.6804
196.2004
117.7204
39.240403
353.16031
274.68031
196.20031
117.72031
39.240314
353.16022
274.68022
196.20022
117.72022
39.240224
353.16013
274.68013
196.20013
117.72013
39.240134
353.16004
274.68004
196.20004
117.72004
39.240044
)
;
    }
    bottomWater_to_rightSolid
    {
        type            calculated;
        value           nonuniform List<scalar> 
130
(
0.0011848232
0.001062956
0.00095667335
0.00085900474
0.00076539556
0.00067382818
0.00058332871
0.00049331983
0.00040349559
0.00031369902
0.00022386239
0.00013395653
4.4053134e-05
0.001134592
0.0010290442
0.00093888232
0.00085167807
0.00076406434
0.00067561219
0.00058644408
0.00049672964
0.00040664256
0.00031631415
0.00022582767
0.00013521775
4.4564898e-05
0.0010567452
0.00097980401
0.00091477477
0.00084229217
0.00076210332
0.00067674161
0.00058845314
0.0004986668
0.00040822534
0.00031752099
0.000226738
0.00013596526
4.522981e-05
0.00078116344
0.0008709404
0.00086252428
0.00082131531
0.00075710244
0.00067867321
0.00059288403
0.0005036452
0.00041280887
0.00032132927
0.00022965215
0.00013796948
4.6303291e-05
0.00034728208
0.00081112689
0.00080135584
0.00083168118
0.00077903502
0.00069490713
0.00060328209
0.00051006313
0.00041666288
0.00032356365
0.00023096548
0.00013886474
4.7097877e-05
0.00034727942
0.00081112678
0.00080135558
0.00083168145
0.00077903519
0.00069490724
0.00060328217
0.00051006319
0.00041666295
0.0003235637
0.00023096558
0.00013886477
4.7097827e-05
0.00078116217
0.00087094045
0.00086252463
0.0008213157
0.00075710275
0.00067867345
0.00059288423
0.00050364536
0.00041280901
0.00032132941
0.00022965233
0.00013796962
4.6303312e-05
0.0010567449
0.00097980399
0.00091477493
0.00084229236
0.00076210352
0.00067674181
0.00058845333
0.00049866699
0.00040822551
0.00031752116
0.00022673819
0.0001359655
4.5229998e-05
0.0011345919
0.0010290442
0.00093888241
0.00085167821
0.0007640645
0.00067561237
0.00058644427
0.00049672982
0.00040664273
0.0003163143
0.00022582781
0.00013521794
4.4565114e-05
0.0011848231
0.001062956
0.00095667341
0.00085900485
0.0007653957
0.00067382835
0.00058332889
0.00049332002
0.00040349577
0.00031369921
0.00022386258
0.00013395676
4.4053422e-05
)
;
    }
    bottomWater_to_leftSolid
    {
        type            calculated;
        value           nonuniform List<scalar> 
130
(
0.0038685559
0.0035279231
0.003363602
0.0032374135
0.0031180508
0.0030032737
0.0028902405
0.0027755087
0.002655311
0.0025260669
0.0023841775
0.0022261804
0.0020501589
0.0036637807
0.0034402341
0.0033084872
0.0032029484
0.0030988196
0.0029951653
0.0028904255
0.0027813987
0.0026647339
0.0025361261
0.0023898358
0.0022181654
0.0020152239
0.0036531181
0.0034385207
0.0033130868
0.0032132358
0.0031151775
0.0030174061
0.0029207095
0.0028232294
0.0027221061
0.002613211
0.0024899223
0.0023392595
0.0021477082
0.0036137657
0.0034074523
0.0032911535
0.0031998001
0.0031101582
0.0030218154
0.0029351448
0.0028489479
0.002760534
0.0026633123
0.0025437423
0.0023514349
0.0019820288
0.0036125789
0.0034080214
0.0032948973
0.0032077446
0.0031238355
0.0030441551
0.0029715706
0.0029088535
0.0028605968
0.0028333588
0.0028403873
0.0028782564
0.0030172188
0.0036125789
0.0034080214
0.0032948974
0.0032077447
0.0031238358
0.0030441554
0.0029715711
0.0029088541
0.0028605973
0.0028333593
0.0028403876
0.0028782567
0.0030172191
0.0036137658
0.0034074524
0.0032911537
0.0031998004
0.0031101588
0.0030218164
0.0029351464
0.00284895
0.0027605355
0.0026633132
0.0025437427
0.002351435
0.0019820284
0.0036531182
0.0034385208
0.003313087
0.0032132363
0.0031151784
0.0030174079
0.0029207127
0.0028232345
0.0027221093
0.0026132127
0.0024899232
0.0023392599
0.0021477084
0.0036637807
0.0034402341
0.0033084873
0.0032029487
0.0030988202
0.0029951664
0.0028904273
0.0027814009
0.0026647356
0.0025361273
0.0023898364
0.0022181657
0.002015224
0.0038685559
0.0035279231
0.0033636022
0.0032374138
0.0031180512
0.0030032744
0.0028902415
0.0027755099
0.002655312
0.0025260677
0.0023841779
0.0022261806
0.002050159
)
;
    }
    bottomWater_to_heater
    {
        type            calculated;
        value           nonuniform List<scalar> 
92
(
0.0018562633
0.0016650159
0.0014872734
0.0013268186
0.0017723642
0.0015754044
0.0014148346
0.0012685344
0.0018329577
0.0015881105
0.0013918231
0.0012169607
353.16119
353.16128
353.16119
353.16104
274.68103
274.6812
274.68116
274.68101
196.20104
196.20121
196.20117
196.20101
117.72103
117.7212
117.72116
117.72101
0.0011884753
39.241188
0.0012756149
39.241276
0.001191968
39.241192
0.0010394514
39.241039
353.16302
353.16035
274.68315
274.68021
196.20314
196.20023
117.72315
117.72021
39.243017
39.240347
353.16302
353.16119
353.16128
353.16119
353.16035
353.16104
274.68315
274.68103
274.6812
274.68116
274.68021
274.68101
196.20314
196.20104
196.20121
196.20117
196.20023
196.20101
117.72315
117.72103
117.7212
117.72116
117.72021
117.72101
39.243017
39.241188
39.241276
39.241192
39.240347
39.241039
0.0011884745
0.0012756142
0.0011919674
0.0010394508
0.0018329576
0.0015881103
0.0013918228
0.0012169603
0.0017723641
0.0015754042
0.0014148344
0.0012685343
0.0018562633
0.0016650159
0.0014872733
0.0013268185
)
;
    }
}


// ************************************************************************* //
