/*--------------------------------*- C++ -*----------------------------------*\
| =========                 |                                                 |
| \\      /  F ield         | OpenFOAM: The Open Source CFD Toolbox           |
|  \\    /   O peration     | Version:  2212                                  |
|   \\  /    A nd           | Website:  www.openfoam.com                      |
|    \\/     M anipulation  |                                                 |
\*---------------------------------------------------------------------------*/
FoamFile
{
    version     2.0;
    format      ascii;
    arch        "LSB;label=32;scalar=64";
    class       volScalarField;
    location    "10/bottomWater";
    object      p_rgh;
}
// * * * * * * * * * * * * * * * * * * * * * * * * * * * * * * * * * * * * * //

dimensions      [1 -1 -2 0 0 0 0];

internalField   nonuniform List<scalar> 
1460
(
0.0038685551
0.0035279216
0.0033636001
0.0032374106
0.0031180465
0.0030032678
0.0028902328
0.0027755001
0.0026553032
0.0025260608
0.0023841731
0.0022261773
0.0020501567
0.0018562618
0.0016650149
0.0014872728
0.0013268183
0.001184823
0.0010629559
0.0009566733
0.00085900475
0.00076539561
0.00067382826
0.00058332883
0.00049331996
0.00040349575
0.00031369915
0.00022386241
0.00013395629
4.4052634e-05
0.0036293213
0.0034455353
0.0033141426
0.0032054062
0.0030989522
0.0029921914
0.0028839191
0.0027723874
0.0026545755
0.0025272216
0.0023868135
0.0022297719
0.0020536659
0.0018581462
0.0016648352
0.0014858448
0.0013242929
0.0011820236
0.001060415
0.0009548309
0.0008577567
0.00076438469
0.00067286595
0.00058242785
0.00049253428
0.0004028385
0.00031316328
0.00022342757
0.00013358249
4.3689107e-05
0.0036662608
0.0034818349
0.0033434984
0.0032276431
0.0031150665
0.0030032535
0.0028910478
0.0027765896
0.0026566232
0.0025277884
0.0023866374
0.0022294199
0.0020537367
0.001859045
0.001666656
0.0014883941
0.0013270906
0.0011847816
0.0010629196
0.00095678649
0.0008591366
0.0007653126
0.00067349835
0.00058284161
0.00049280032
0.00040301475
0.00031328582
0.00022351494
0.00013363873
4.3694327e-05
0.0036293218
0.0034455363
0.003314144
0.003205408
0.0030989549
0.0029921953
0.0028839243
0.0027723933
0.0026545809
0.0025272257
0.0023868163
0.0022297738
0.0020536673
0.0018581473
0.0016648359
0.0014858451
0.0013242931
0.0011820236
0.0010604148
0.00095483066
0.00085775649
0.00076438447
0.00067286572
0.00058242769
0.00049253415
0.0004028384
0.00031316322
0.00022342763
0.00013358268
4.3689416e-05
0.0038685559
0.0035279231
0.003363602
0.0032374135
0.0031180508
0.0030032737
0.0028902405
0.0027755087
0.002655311
0.0025260669
0.0023841775
0.0022261804
0.0020501589
0.0018562633
0.0016650159
0.0014872734
0.0013268186
0.0011848232
0.001062956
0.00095667335
0.00085900474
0.00076539556
0.00067382818
0.00058332871
0.00049331983
0.00040349559
0.00031369902
0.00022386239
0.00013395653
4.4053134e-05
0.0036637798
0.0034402324
0.0033084848
0.0032029448
0.003098814
0.0029951563
0.0028904121
0.0027813816
0.0026647202
0.0025361169
0.0023898299
0.0022181617
0.0020152214
0.0017723623
0.0015754033
0.0014148339
0.0012685341
0.0011345918
0.0010290441
0.00093888231
0.00085167814
0.00076406446
0.00067561235
0.00058644427
0.00049672986
0.00040664282
0.00031631441
0.00022582789
0.00013521755
4.4564397e-05
0.0034265435
0.0033591396
0.0032688862
0.0031759411
0.0030814749
0.0029849851
0.0028848344
0.0027788851
0.0026647251
0.0025383557
0.0023939831
0.002223328
0.0020184926
0.0017688039
0.0015688067
0.0014085194
0.0012641166
0.0011308276
0.001026358
0.00093816532
0.00085218029
0.00076470974
0.00067601491
0.00058660621
0.00049673194
0.00040655228
0.0003161763
0.00022566537
0.00013502908
4.4294914e-05
0.0034626355
0.0033950228
0.003297817
0.0031976753
0.0030972449
0.0029959343
0.0028919698
0.0027831036
0.0026667164
0.0025388135
0.0023935173
0.0022225419
0.0020181759
0.0017697992
0.0015711624
0.0014112934
0.0012669956
0.0011334702
0.0010286887
0.00093993307
0.00085321394
0.00076522001
0.00067624269
0.00058669272
0.0004967545
0.00040655592
0.00031618352
0.00022568114
0.0001350375
4.4281686e-05
0.0034265441
0.0033591408
0.0032688878
0.0031759435
0.0030814788
0.0029849917
0.002884846
0.0027789033
0.0026647369
0.0025383626
0.0023939871
0.0022233303
0.0020184942
0.0017688058
0.0015688074
0.0014085198
0.0012641168
0.0011308277
0.0010263579
0.00093816517
0.00085218015
0.00076470961
0.00067601478
0.00058660608
0.0004967318
0.00040655216
0.00031617628
0.00022566566
0.00013502923
4.4295137e-05
0.0036637807
0.0034402341
0.0033084872
0.0032029484
0.0030988196
0.0029951653
0.0028904255
0.0027813987
0.0026647339
0.0025361261
0.0023898358
0.0022181654
0.0020152239
0.0017723642
0.0015754044
0.0014148346
0.0012685344
0.001134592
0.0010290442
0.00093888232
0.00085167807
0.00076406434
0.00067561219
0.00058644408
0.00049672964
0.00040664256
0.00031631415
0.00022582767
0.00013521775
4.4564898e-05
0.0036531172
0.0034385188
0.0033130841
0.0032132315
0.0031151701
0.0030173927
0.0029206853
0.0028231908
0.0027220817
0.0026131972
0.0024899147
0.0023392552
0.0021477057
0.0018329561
0.0015881095
0.0013918226
0.0012169604
0.001056745
0.00097980397
0.00091477481
0.00084229228
0.00076210349
0.0006767418
0.00058845335
0.00049866703
0.0004082256
0.00031752123
0.00022673812
0.00013596512
4.5229354e-05
0.0034155745
0.0033564354
0.0032731954
0.003186185
0.0030980153
0.0030073834
0.0029152838
0.0028210561
0.002722877
0.0026167261
0.0024960642
0.0023475972
0.0021539257
0.001827249
0.0015756646
0.0013809655
0.0012055946
0.0010452094
0.00097430963
0.00091642862
0.00084652799
0.00076595957
0.0006793778
0.00059004435
0.00049953732
0.00040866291
0.00031771786
0.00022680878
0.00013596173
4.5179561e-05
0.0034524184
0.0033929753
0.003302655
0.003208311
0.0031141112
0.0030185711
0.0029225857
0.0028253733
0.0027247664
0.0026170353
0.0024954268
0.0023467922
0.0021541181
0.0018299057
0.0015794658
0.0013855006
0.001209877
0.0010493932
0.00097816136
0.0009190876
0.00084775891
0.00076636005
0.00067937865
0.0005898801
0.0004993428
0.00040849987
0.00031760183
0.00022673409
0.00013592323
4.5165122e-05
0.0034155751
0.0033564366
0.0032731973
0.003186188
0.0030980208
0.0030073955
0.0029153156
0.0028211573
0.0027229097
0.0026167386
0.0024960699
0.0023476001
0.0021539274
0.0018272502
0.0015756652
0.0013809658
0.0012055946
0.0010452095
0.00097430963
0.00091642853
0.00084652788
0.00076595945
0.00067937766
0.00059004421
0.00049953716
0.00040866275
0.00031771773
0.00022680879
0.00013596189
4.5179774e-05
0.0036531181
0.0034385207
0.0033130868
0.0032132358
0.0031151775
0.0030174061
0.0029207095
0.0028232294
0.0027221061
0.002613211
0.0024899223
0.0023392595
0.0021477082
0.0018329577
0.0015881105
0.0013918231
0.0012169607
0.0010567452
0.00097980401
0.00091477477
0.00084229217
0.00076210332
0.00067674161
0.00058845314
0.0004986668
0.00040822534
0.00031752099
0.000226738
0.00013596526
4.522981e-05
0.0036137648
0.0034074505
0.0032911511
0.0031997964
0.0031101523
0.0030218061
0.0029351308
0.0028489301
0.0027605197
0.0026633026
0.0025437362
0.0023514312
0.0019820262
0.0011884735
0.0012756139
0.0011919674
0.001039451
0.00078116291
0.00087094023
0.00086252424
0.00082131542
0.00075710262
0.00067867341
0.00059288426
0.00050364546
0.00041280917
0.00032132955
0.00022965234
0.00013796933
4.630275e-05
0.0033766851
0.0033250724
0.0032514279
0.0031731805
0.0030933389
0.0030123437
0.0029307883
0.0028489798
0.002765576
0.0026749329
0.0025629813
0.0023737898
0.0019599453
0.0010311651
0.0011992782
0.0011565673
0.0010074202
0.00072410421
0.00085336949
0.00086488884
0.00082781888
0.00076295113
0.00068280936
0.00059544983
0.00050516481
0.00041369429
0.00032183422
0.00022994784
0.00013816763
4.6473583e-05
0.0034130848
0.0033612175
0.0032806028
0.0031949977
0.0031090669
0.003023096
0.0029374767
0.0028523247
0.0027660919
0.0026730777
0.002559279
0.0023695036
0.0019554571
0.0010391385
0.0012126986
0.0011666138
0.0010138887
0.00073121124
0.00086031946
0.00086904652
0.00082933899
0.000763135
0.0006824478
0.00059494999
0.00050471715
0.00041335807
0.00032160656
0.00022980445
0.00013808826
4.6455915e-05
0.0033766858
0.0033250735
0.0032514297
0.0031731831
0.0030933429
0.0030123506
0.0029308004
0.0028489994
0.0027655885
0.0026749401
0.0025629854
0.0023737922
0.0019599468
0.001031166
0.0011992786
0.0011565675
0.0010074203
0.00072410452
0.00085336969
0.0008648889
0.0008278188
0.00076295099
0.00068280921
0.00059544967
0.00050516463
0.00041369411
0.00032183405
0.00022994776
0.00013816768
4.6473852e-05
0.0036137657
0.0034074523
0.0032911535
0.0031998001
0.0031101582
0.0030218154
0.0029351448
0.0028489479
0.002760534
0.0026633123
0.0025437423
0.0023514349
0.0019820288
0.0011884753
0.0012756149
0.001191968
0.0010394514
0.00078116344
0.0008709404
0.00086252428
0.00082131531
0.00075710244
0.00067867321
0.00059288403
0.0005036452
0.00041280887
0.00032132927
0.00022965215
0.00013796948
4.6303291e-05
0.003612578
0.0034080197
0.003294895
0.0032077414
0.0031238309
0.0030441485
0.002971562
0.0029088436
0.0028605879
0.002833352
0.0028403825
0.0028782532
0.0030172163
0.00034728144
0.00081112636
0.00080135555
0.0008316816
0.00077903542
0.00069490753
0.00060328245
0.00051006347
0.00041666322
0.00032356396
0.00023096565
0.00013886454
4.7097273e-05
0.0033753553
0.0033253409
0.0032548487
0.0031809375
0.0031068696
0.0030346242
0.0029673738
0.0029096167
0.0028676411
0.0028504902
0.0028746716
0.0029411286
0.0031506918
0.00021009115
0.00081267424
0.0008139525
0.00085136912
0.0007981432
0.00070700514
0.00060989694
0.00051360066
0.00041855182
0.00032456026
0.00023151274
0.00013925877
4.7565707e-05
0.0034118451
0.0033615802
0.0032841236
0.0032028471
0.0031226873
0.0030454535
0.0029740821
0.0029127864
0.0028677521
0.0028476239
0.002868936
0.0029332117
0.003139152
0.00022690195
0.00082329429
0.00081824207
0.00085273564
0.00079791365
0.00070601037
0.00060886628
0.00051281594
0.00041800824
0.00032419754
0.00023128515
0.00013913515
4.7556932e-05
0.0033753559
0.0033253421
0.0032548503
0.0031809396
0.0031068726
0.0030346285
0.0029673797
0.0029096237
0.0028676473
0.0028504947
0.0028746746
0.0029411306
0.0031506931
0.00021009169
0.00081267497
0.00081395285
0.00085136887
0.0007981429
0.00070700486
0.00060989669
0.00051360043
0.00041855161
0.00032456009
0.00023151265
0.00013925891
4.7566106e-05
0.0036125789
0.0034080214
0.0032948973
0.0032077446
0.0031238355
0.0030441551
0.0029715706
0.0029088535
0.0028605968
0.0028333588
0.0028403873
0.0028782564
0.0030172188
0.00034728208
0.00081112689
0.00080135584
0.00083168118
0.00077903502
0.00069490713
0.00060328209
0.00051006313
0.00041666288
0.00032356365
0.00023096548
0.00013886474
4.7097877e-05
0.003612578
0.0034080196
0.003294895
0.0032077413
0.0031238307
0.0030441482
0.0029715616
0.0029088431
0.0028605875
0.0028333518
0.0028403824
0.0028782532
0.0030172163
0.00034727813
0.00081112626
0.00080135533
0.00083168193
0.00077903564
0.00069490764
0.00060328253
0.00051006354
0.00041666328
0.00032356401
0.0002309657
0.00013886455
4.7097225e-05
0.0033753553
0.0033253409
0.0032548486
0.0031809374
0.0031068695
0.003034624
0.0029673735
0.0029096163
0.0028676409
0.00285049
0.0028746715
0.0029411286
0.003150692
0.00021008734
0.00081267419
0.00081395234
0.00085136953
0.00079814347
0.00070700529
0.00060989703
0.00051360072
0.00041855187
0.00032456032
0.00023151279
0.0001392588
4.7565676e-05
0.0034118451
0.0033615802
0.0032841236
0.0032028471
0.0031226874
0.0030454536
0.0029740822
0.0029127865
0.0028677522
0.002847624
0.0028689361
0.0029332118
0.0031391522
0.00022689852
0.00082329421
0.00081824188
0.000852736
0.0007979139
0.0007060105
0.00060886636
0.00051281601
0.00041800829
0.0003241976
0.00023128521
0.0001391352
4.7556892e-05
0.0033753559
0.0033253421
0.0032548503
0.0031809397
0.0031068728
0.0030346288
0.0029673801
0.0029096243
0.0028676477
0.002850495
0.0028746749
0.0029411308
0.0031506934
0.00021008851
0.0008126749
0.00081395266
0.00085136922
0.00079814315
0.000707005
0.00060989678
0.0005136005
0.00041855167
0.00032456015
0.00023151272
0.00013925898
4.7566083e-05
0.0036125789
0.0034080214
0.0032948974
0.0032077447
0.0031238358
0.0030441554
0.0029715711
0.0029088541
0.0028605973
0.0028333593
0.0028403876
0.0028782567
0.0030172191
0.00034727942
0.00081112678
0.00080135558
0.00083168145
0.00077903519
0.00069490724
0.00060328217
0.00051006319
0.00041666295
0.0003235637
0.00023096558
0.00013886477
4.7097827e-05
0.0036137647
0.0034074504
0.0032911509
0.003199796
0.0031101517
0.003021805
0.0029351291
0.0028489279
0.002760518
0.0026633015
0.0025437354
0.0023514306
0.0019820255
0.0011884724
0.001275613
0.0011919666
0.0010394503
0.00078116133
0.00087094028
0.00086252468
0.00082131589
0.00075710298
0.00067867368
0.00059288447
0.00050364564
0.00041280932
0.00032132969
0.00022965246
0.00013796938
4.630269e-05
0.003376685
0.0033250723
0.0032514278
0.0031731803
0.0030933384
0.0030123428
0.0029307867
0.0028489773
0.0027655744
0.002674932
0.0025629807
0.0023737893
0.0019599444
0.0010311636
0.001199277
0.0011565664
0.0010074194
0.00072410234
0.00085336954
0.00086488942
0.00082781947
0.00076295154
0.00068280965
0.00059545004
0.00050516498
0.00041369443
0.00032183435
0.00022994796
0.0001381677
4.6473553e-05
0.0034130848
0.0033612175
0.0032806027
0.0031949977
0.0031090668
0.0030230959
0.0029374765
0.0028523245
0.0027660918
0.0026730776
0.0025592789
0.0023695033
0.0019554563
0.001039137
0.0012126976
0.0011666129
0.001013888
0.00073120959
0.00086031955
0.00086904706
0.00082933954
0.00076313539
0.00068244808
0.0005949502
0.00050471732
0.00041335821
0.00032160669
0.00022980459
0.00013808837
4.6455921e-05
0.0033766858
0.0033250736
0.0032514297
0.0031731832
0.0030933433
0.0030123513
0.0029308018
0.0028490019
0.00276559
0.0026749408
0.0025629857
0.0023737922
0.0019599462
0.0010311647
0.0011992776
0.0011565666
0.0010074196
0.00072410295
0.00085336976
0.00086488941
0.00082781932
0.00076295138
0.00068280948
0.00059544988
0.0005051648
0.00041369425
0.0003218342
0.00022994792
0.00013816784
4.6473894e-05
0.0036137658
0.0034074524
0.0032911537
0.0031998004
0.0031101588
0.0030218164
0.0029351464
0.00284895
0.0027605355
0.0026633132
0.0025437427
0.002351435
0.0019820284
0.0011884745
0.0012756142
0.0011919674
0.0010394508
0.00078116217
0.00087094045
0.00086252463
0.0008213157
0.00075710275
0.00067867345
0.00059288423
0.00050364536
0.00041280901
0.00032132941
0.00022965233
0.00013796962
4.6303312e-05
0.0036531169
0.0034385186
0.0033130838
0.003213231
0.0031151691
0.003017391
0.0029206821
0.0028231858
0.0027220786
0.0026131955
0.0024899137
0.0023392546
0.0021477053
0.0018329556
0.0015881091
0.0013918222
0.00121696
0.0010567447
0.00097980397
0.00091477503
0.00084229251
0.0007621037
0.00067674199
0.00058845353
0.00049866722
0.00040822578
0.0003175214
0.00022673827
0.00013596522
4.5229364e-05
0.0034155744
0.0033564353
0.0032731952
0.0031861847
0.0030980146
0.0030073818
0.0029152796
0.0028210429
0.0027228727
0.0026167244
0.0024960635
0.0023475968
0.0021539253
0.0018272486
0.0015756641
0.0013809651
0.0012055942
0.001045209
0.00097430964
0.0009164289
0.00084652826
0.00076595979
0.00067937799
0.00059004454
0.0004995375
0.0004086631
0.00031771803
0.00022680893
0.00013596186
4.5179621e-05
0.0034524183
0.0033929753
0.003302655
0.003208311
0.0031141112
0.003018571
0.0029225854
0.0028253725
0.0027247661
0.0026170353
0.0024954267
0.0023467921
0.0021541179
0.0018299054
0.0015794654
0.0013855002
0.0012098766
0.0010493929
0.00097816134
0.00091908781
0.00084775914
0.00076636026
0.00067937884
0.00058988029
0.00049934299
0.00040850006
0.00031760201
0.00022673427
0.00013592339
4.5165251e-05
0.0034155752
0.0033564367
0.0032731974
0.0031861883
0.0030980215
0.0030073971
0.0029153199
0.0028211711
0.002722914
0.0026167402
0.0024960705
0.0023476004
0.0021539274
0.0018272501
0.0015756649
0.0013809654
0.0012055943
0.0010452091
0.00097430962
0.00091642875
0.00084652811
0.00076595966
0.00067937786
0.0005900444
0.00049953734
0.00040866294
0.00031771795
0.00022680903
0.00013596213
4.5179966e-05
0.0036531182
0.0034385208
0.003313087
0.0032132363
0.0031151784
0.0030174079
0.0029207127
0.0028232345
0.0027221093
0.0026132127
0.0024899232
0.0023392599
0.0021477084
0.0018329576
0.0015881103
0.0013918228
0.0012169603
0.0010567449
0.00097980399
0.00091477493
0.00084229236
0.00076210352
0.00067674181
0.00058845333
0.00049866699
0.00040822551
0.00031752116
0.00022673819
0.0001359655
4.5229998e-05
0.0036637794
0.0034402321
0.0033084845
0.0032029443
0.003098813
0.0029951549
0.0028904101
0.0027813791
0.0026647182
0.0025361155
0.002389829
0.0022181611
0.0020152209
0.0017723618
0.0015754029
0.0014148336
0.0012685338
0.0011345917
0.0010290441
0.00093888239
0.00085167826
0.00076406459
0.00067561249
0.00058644442
0.00049673002
0.00040664298
0.00031631456
0.00022582802
0.00013521766
4.4564484e-05
0.0034265433
0.0033591395
0.003268886
0.0031759407
0.0030814742
0.002984984
0.0028848326
0.0027788825
0.0026647233
0.0025383547
0.0023939824
0.0022233275
0.0020184922
0.0017688036
0.0015688064
0.0014085191
0.0012641164
0.0011308274
0.001026358
0.00093816541
0.00085218042
0.00076470988
0.00067601505
0.00058660637
0.0004967321
0.00040655244
0.00031617645
0.00022566548
0.00013502921
4.4295047e-05
0.0034626354
0.0033950227
0.0032978169
0.0031976752
0.0030972448
0.0029959341
0.0028919696
0.0027831033
0.0026667163
0.0025388134
0.0023935172
0.0022225417
0.0020181756
0.0017697986
0.0015711619
0.001411293
0.0012669953
0.0011334701
0.0010286887
0.00093993316
0.00085321409
0.00076522016
0.00067624285
0.00058669288
0.00049675466
0.00040655608
0.00031618367
0.00022568128
0.00013503765
4.4281856e-05
0.0034265441
0.0033591408
0.0032688879
0.0031759437
0.0030814792
0.0029849925
0.0028848475
0.0027789058
0.0026647385
0.0025383634
0.0023939875
0.0022233304
0.0020184942
0.0017688058
0.0015688072
0.0014085195
0.0012641166
0.0011308275
0.0010263579
0.0009381653
0.00085218032
0.00076470978
0.00067601495
0.00058660626
0.00049673199
0.00040655235
0.00031617649
0.00022566591
0.00013502945
4.429536e-05
0.0036637807
0.0034402341
0.0033084873
0.0032029487
0.0030988202
0.0029951664
0.0028904273
0.0027814009
0.0026647356
0.0025361273
0.0023898364
0.0022181657
0.002015224
0.0017723641
0.0015754042
0.0014148344
0.0012685343
0.0011345919
0.0010290442
0.00093888241
0.00085167821
0.0007640645
0.00067561237
0.00058644427
0.00049672982
0.00040664273
0.0003163143
0.00022582781
0.00013521794
4.4565114e-05
0.0038685547
0.0035279213
0.0033635997
0.0032374102
0.0031180459
0.0030032668
0.0028902316
0.0027754988
0.002655302
0.0025260599
0.0023841725
0.0022261768
0.0020501563
0.0018562615
0.0016650147
0.0014872725
0.0013268181
0.0011848229
0.0010629559
0.00095667334
0.00085900483
0.00076539572
0.0006738284
0.00058332899
0.00049332014
0.00040349593
0.00031369932
0.00022386257
0.00013395649
4.4052882e-05
0.003629321
0.0034455352
0.0033141424
0.0032054058
0.0030989517
0.0029921908
0.0028839182
0.0027723864
0.0026545746
0.0025272209
0.002386813
0.0022297715
0.0020536656
0.001858146
0.001664835
0.0014858446
0.0013242927
0.0011820235
0.0010604149
0.0009548309
0.00085775676
0.00076438478
0.00067286607
0.00058242801
0.00049253448
0.00040283871
0.00031316349
0.00022342778
0.00013358275
4.3689426e-05
0.0036662607
0.0034818348
0.0033434983
0.0032276431
0.0031150664
0.0030032534
0.0028910477
0.0027765895
0.0026566231
0.0025277883
0.0023866373
0.0022294198
0.0020537365
0.0018590448
0.0016666559
0.0014883939
0.0013270905
0.0011847816
0.0010629196
0.00095678657
0.00085913672
0.00076531275
0.00067349852
0.0005828418
0.00049280052
0.00040301495
0.000313286
0.00022351512
0.00013363896
4.3694627e-05
0.0036293218
0.0034455363
0.003314144
0.0032054082
0.0030989551
0.0029921957
0.0028839249
0.002772394
0.0026545815
0.0025272261
0.0023868166
0.0022297739
0.0020536673
0.0018581473
0.0016648358
0.001485845
0.0013242929
0.0011820235
0.0010604148
0.00095483074
0.00085775662
0.00076438463
0.0006728659
0.00058242789
0.00049253437
0.00040283863
0.00031316345
0.00022342788
0.00013358297
4.368975e-05
0.0038685559
0.0035279231
0.0033636022
0.0032374138
0.0031180512
0.0030032744
0.0028902415
0.0027755099
0.002655312
0.0025260677
0.0023841779
0.0022261806
0.002050159
0.0018562633
0.0016650159
0.0014872733
0.0013268185
0.0011848231
0.001062956
0.00095667341
0.00085900485
0.0007653957
0.00067382835
0.00058332889
0.00049332002
0.00040349577
0.00031369921
0.00022386258
0.00013395676
4.4053422e-05
)
;

boundaryField
{
    minX
    {
        type            zeroGradient;
    }
    maxX
    {
        type            fixedValue;
        value           uniform 0;
    }
    minY
    {
        type            fixedFluxPressure;
        gradient        uniform 0;
        value           nonuniform List<scalar> 
292
(
0.0038685551
0.0036637798
0.0036531172
0.0036137648
0.003612578
0.003612578
0.0036137647
0.0036531169
0.0036637794
0.0038685547
0.0035279216
0.0034402324
0.0034385188
0.0034074505
0.0034080197
0.0034080196
0.0034074504
0.0034385186
0.0034402321
0.0035279213
0.0033636001
0.0033084848
0.0033130841
0.0032911511
0.003294895
0.003294895
0.0032911509
0.0033130838
0.0033084845
0.0033635997
0.0032374106
0.0032029448
0.0032132315
0.0031997964
0.0032077414
0.0032077413
0.003199796
0.003213231
0.0032029443
0.0032374102
0.0031180465
0.003098814
0.0031151701
0.0031101523
0.0031238309
0.0031238307
0.0031101517
0.0031151691
0.003098813
0.0031180459
0.0030032678
0.0029951563
0.0030173927
0.0030218061
0.0030441485
0.0030441482
0.003021805
0.003017391
0.0029951549
0.0030032668
0.0028902328
0.0028904121
0.0029206853
0.0029351308
0.002971562
0.0029715616
0.0029351291
0.0029206821
0.0028904101
0.0028902316
0.0027755001
0.0027813816
0.0028231908
0.0028489301
0.0029088436
0.0029088431
0.0028489279
0.0028231858
0.0027813791
0.0027754988
0.0026553032
0.0026647202
0.0027220817
0.0027605197
0.0028605879
0.0028605875
0.002760518
0.0027220786
0.0026647182
0.002655302
0.0025260608
0.0025361169
0.0026131972
0.0026633026
0.002833352
0.0028333518
0.0026633015
0.0026131955
0.0025361155
0.0025260599
0.0023841731
0.0023898299
0.0024899147
0.0025437362
0.0028403825
0.0028403824
0.0025437354
0.0024899137
0.002389829
0.0023841725
0.0022261773
0.0022181617
0.0023392552
0.0023514312
0.0028782532
0.0028782532
0.0023514306
0.0023392546
0.0022181611
0.0022261768
0.0020501567
0.0020152214
0.0021477057
0.0019820262
0.0030172163
0.0030172163
0.0019820255
0.0021477053
0.0020152209
0.0020501563
0.0018562618
0.0017723623
0.0018329561
0.0011884735
0.0011884724
0.0018329556
0.0017723618
0.0018562615
0.0016650149
0.0015754033
0.0015881095
0.0012756139
0.001275613
0.0015881091
0.0015754029
0.0016650147
0.0014872728
0.0014148339
0.0013918226
0.0011919674
0.0011919666
0.0013918222
0.0014148336
0.0014872725
0.0013268183
0.0012685341
0.0012169604
0.001039451
0.0010394503
0.00121696
0.0012685338
0.0013268181
0.001184823
0.0011345918
0.001056745
0.00078116291
0.00034728144
0.00034727813
0.00078116133
0.0010567447
0.0011345917
0.0011848229
0.0010629559
0.0010290441
0.00097980397
0.00087094023
0.00081112636
0.00081112626
0.00087094028
0.00097980397
0.0010290441
0.0010629559
0.0009566733
0.00093888231
0.00091477481
0.00086252424
0.00080135555
0.00080135533
0.00086252468
0.00091477503
0.00093888239
0.00095667334
0.00085900475
0.00085167814
0.00084229228
0.00082131542
0.0008316816
0.00083168193
0.00082131589
0.00084229251
0.00085167826
0.00085900483
0.00076539561
0.00076406446
0.00076210349
0.00075710262
0.00077903542
0.00077903564
0.00075710298
0.0007621037
0.00076406459
0.00076539572
0.00067382826
0.00067561235
0.0006767418
0.00067867341
0.00069490753
0.00069490764
0.00067867368
0.00067674199
0.00067561249
0.0006738284
0.00058332883
0.00058644427
0.00058845335
0.00059288426
0.00060328245
0.00060328253
0.00059288447
0.00058845353
0.00058644442
0.00058332899
0.00049331996
0.00049672986
0.00049866703
0.00050364546
0.00051006347
0.00051006354
0.00050364564
0.00049866722
0.00049673002
0.00049332014
0.00040349575
0.00040664282
0.0004082256
0.00041280917
0.00041666322
0.00041666328
0.00041280932
0.00040822578
0.00040664298
0.00040349593
0.00031369915
0.00031631441
0.00031752123
0.00032132955
0.00032356396
0.00032356401
0.00032132969
0.0003175214
0.00031631456
0.00031369932
0.00022386241
0.00022582789
0.00022673812
0.00022965234
0.00023096565
0.0002309657
0.00022965246
0.00022673827
0.00022582802
0.00022386257
0.00013395629
0.00013521755
0.00013596512
0.00013796933
0.00013886454
0.00013886455
0.00013796938
0.00013596522
0.00013521766
0.00013395649
4.4052634e-05
4.4564397e-05
4.5229354e-05
4.630275e-05
4.7097273e-05
4.7097225e-05
4.630269e-05
4.5229364e-05
4.4564484e-05
4.4052882e-05
)
;
    }
    minZ
    {
        type            fixedFluxPressure;
        gradient        uniform 0;
        value           nonuniform List<scalar> 
150
(
0.0038685551
0.0036293213
0.0036662608
0.0036293218
0.0038685559
0.0035279216
0.0034455353
0.0034818349
0.0034455363
0.0035279231
0.0033636001
0.0033141426
0.0033434984
0.003314144
0.003363602
0.0032374106
0.0032054062
0.0032276431
0.003205408
0.0032374135
0.0031180465
0.0030989522
0.0031150665
0.0030989549
0.0031180508
0.0030032678
0.0029921914
0.0030032535
0.0029921953
0.0030032737
0.0028902328
0.0028839191
0.0028910478
0.0028839243
0.0028902405
0.0027755001
0.0027723874
0.0027765896
0.0027723933
0.0027755087
0.0026553032
0.0026545755
0.0026566232
0.0026545809
0.002655311
0.0025260608
0.0025272216
0.0025277884
0.0025272257
0.0025260669
0.0023841731
0.0023868135
0.0023866374
0.0023868163
0.0023841775
0.0022261773
0.0022297719
0.0022294199
0.0022297738
0.0022261804
0.0020501567
0.0020536659
0.0020537367
0.0020536673
0.0020501589
0.0018562618
0.0018581462
0.001859045
0.0018581473
0.0018562633
0.0016650149
0.0016648352
0.001666656
0.0016648359
0.0016650159
0.0014872728
0.0014858448
0.0014883941
0.0014858451
0.0014872734
0.0013268183
0.0013242929
0.0013270906
0.0013242931
0.0013268186
0.001184823
0.0011820236
0.0011847816
0.0011820236
0.0011848232
0.0010629559
0.001060415
0.0010629196
0.0010604148
0.001062956
0.0009566733
0.0009548309
0.00095678649
0.00095483066
0.00095667335
0.00085900475
0.0008577567
0.0008591366
0.00085775649
0.00085900474
0.00076539561
0.00076438469
0.0007653126
0.00076438447
0.00076539556
0.00067382826
0.00067286595
0.00067349835
0.00067286572
0.00067382818
0.00058332883
0.00058242785
0.00058284161
0.00058242769
0.00058332871
0.00049331996
0.00049253428
0.00049280032
0.00049253415
0.00049331983
0.00040349575
0.0004028385
0.00040301475
0.0004028384
0.00040349559
0.00031369915
0.00031316328
0.00031328582
0.00031316322
0.00031369902
0.00022386241
0.00022342757
0.00022351494
0.00022342763
0.00022386239
0.00013395629
0.00013358249
0.00013363873
0.00013358268
0.00013395653
4.4052634e-05
4.3689107e-05
4.3694327e-05
4.3689416e-05
4.4053134e-05
)
;
    }
    maxZ
    {
        type            fixedFluxPressure;
        gradient        uniform 0;
        value           nonuniform List<scalar> 
150
(
0.0038685547
0.003629321
0.0036662607
0.0036293218
0.0038685559
0.0035279213
0.0034455352
0.0034818348
0.0034455363
0.0035279231
0.0033635997
0.0033141424
0.0033434983
0.003314144
0.0033636022
0.0032374102
0.0032054058
0.0032276431
0.0032054082
0.0032374138
0.0031180459
0.0030989517
0.0031150664
0.0030989551
0.0031180512
0.0030032668
0.0029921908
0.0030032534
0.0029921957
0.0030032744
0.0028902316
0.0028839182
0.0028910477
0.0028839249
0.0028902415
0.0027754988
0.0027723864
0.0027765895
0.002772394
0.0027755099
0.002655302
0.0026545746
0.0026566231
0.0026545815
0.002655312
0.0025260599
0.0025272209
0.0025277883
0.0025272261
0.0025260677
0.0023841725
0.002386813
0.0023866373
0.0023868166
0.0023841779
0.0022261768
0.0022297715
0.0022294198
0.0022297739
0.0022261806
0.0020501563
0.0020536656
0.0020537365
0.0020536673
0.002050159
0.0018562615
0.001858146
0.0018590448
0.0018581473
0.0018562633
0.0016650147
0.001664835
0.0016666559
0.0016648358
0.0016650159
0.0014872725
0.0014858446
0.0014883939
0.001485845
0.0014872733
0.0013268181
0.0013242927
0.0013270905
0.0013242929
0.0013268185
0.0011848229
0.0011820235
0.0011847816
0.0011820235
0.0011848231
0.0010629559
0.0010604149
0.0010629196
0.0010604148
0.001062956
0.00095667334
0.0009548309
0.00095678657
0.00095483074
0.00095667341
0.00085900483
0.00085775676
0.00085913672
0.00085775662
0.00085900485
0.00076539572
0.00076438478
0.00076531275
0.00076438463
0.0007653957
0.0006738284
0.00067286607
0.00067349852
0.0006728659
0.00067382835
0.00058332899
0.00058242801
0.0005828418
0.00058242789
0.00058332889
0.00049332014
0.00049253448
0.00049280052
0.00049253437
0.00049332002
0.00040349593
0.00040283871
0.00040301495
0.00040283863
0.00040349577
0.00031369932
0.00031316349
0.000313286
0.00031316345
0.00031369921
0.00022386257
0.00022342778
0.00022351512
0.00022342788
0.00022386258
0.00013395649
0.00013358275
0.00013363896
0.00013358297
0.00013395676
4.4052882e-05
4.3689426e-05
4.3694627e-05
4.368975e-05
4.4053422e-05
)
;
    }
    bottomWater_to_rightSolid
    {
        type            fixedFluxPressure;
        gradient        uniform 0;
        value           nonuniform List<scalar> 
130
(
0.0011848232
0.001062956
0.00095667335
0.00085900474
0.00076539556
0.00067382818
0.00058332871
0.00049331983
0.00040349559
0.00031369902
0.00022386239
0.00013395653
4.4053134e-05
0.001134592
0.0010290442
0.00093888232
0.00085167807
0.00076406434
0.00067561219
0.00058644408
0.00049672964
0.00040664256
0.00031631415
0.00022582767
0.00013521775
4.4564898e-05
0.0010567452
0.00097980401
0.00091477477
0.00084229217
0.00076210332
0.00067674161
0.00058845314
0.0004986668
0.00040822534
0.00031752099
0.000226738
0.00013596526
4.522981e-05
0.00078116344
0.0008709404
0.00086252428
0.00082131531
0.00075710244
0.00067867321
0.00059288403
0.0005036452
0.00041280887
0.00032132927
0.00022965215
0.00013796948
4.6303291e-05
0.00034728208
0.00081112689
0.00080135584
0.00083168118
0.00077903502
0.00069490713
0.00060328209
0.00051006313
0.00041666288
0.00032356365
0.00023096548
0.00013886474
4.7097877e-05
0.00034727942
0.00081112678
0.00080135558
0.00083168145
0.00077903519
0.00069490724