/*--------------------------------*- C++ -*----------------------------------*\
| =========                 |                                                 |
| \\      /  F ield         | OpenFOAM: The Open Source CFD Toolbox           |
|  \\    /   O peration     | Version:  2212                                  |
|   \\  /    A nd           | Website:  www.openfoam.com                      |
|    \\/     M anipulation  |                                                 |
\*---------------------------------------------------------------------------*/
FoamFile
{
    version     2.0;
    format      ascii;
    arch        "LSB;label=32;scalar=64";
    class       surfaceScalarField;
    location    "10/bottomWater";
    object      phi;
}
// * * * * * * * * * * * * * * * * * * * * * * * * * * * * * * * * * * * * * //

dimensions      [1 0 -1 0 0 0 0];

oriented        oriented;

internalField   nonuniform List<scalar> 
3858
(
7.4253318e-05
3.5589977e-06
2.1876844e-06
6.9199796e-05
2.9678858e-06
2.0856357e-06
6.5809965e-05
1.9229358e-06
1.4668952e-06
6.385361e-05
1.1206058e-06
8.3574952e-07
6.2946308e-05
6.0452392e-07
3.0277863e-07
6.2772518e-05
3.1070576e-07
-1.3691565e-07
6.3142464e-05
1.5618533e-07
-5.26132e-07
6.399699e-05
7.5547097e-08
-9.3007307e-07
6.53421e-05
3.0541503e-08
-1.375651e-06
6.7209805e-05
1.192006e-09
-1.8688976e-06
6.9610192e-05
-2.3056259e-08
-2.3773308e-06
7.2412356e-05
-4.3337963e-08
-2.7588252e-06
7.5275541e-05
-6.2192935e-08
-2.8009925e-06
7.6956292e-05
-5.7529356e-08
-1.623222e-06
7.7397435e-05
-4.1082576e-08
-4.0005965e-07
7.6801861e-05
-3.0488879e-08
6.2606237e-07
7.5330021e-05
-2.0084346e-08
1.4919243e-06
7.2989683e-05
-1.1500488e-08
2.3518386e-06
7.031063e-05
-9.7316321e-09
2.6887844e-06
6.7784527e-05
-1.2259589e-08
2.5383633e-06
6.5660567e-05
-1.3185789e-08
2.1371458e-06
6.3998852e-05
-1.0129147e-08
1.6718438e-06
6.2760233e-05
-5.3911471e-09
1.2440099e-06
6.1865868e-05
-1.4778313e-09
8.9584314e-07
6.1233556e-05
1.1387094e-09
6.3117293e-07
6.0793643e-05
2.565561e-09
4.3734722e-07
6.0492405e-05
3.0165537e-09
2.9822151e-07
6.0290268e-05
3.0670359e-09
1.9907066e-07
6.01594e-05
2.880202e-09
1.2798779e-07
4.2448947e-09
8.0323253e-08
7.9837127e-05
1.3685336e-06
2.3533375e-06
7.9259189e-05
1.1766838e-06
2.3691395e-06
7.8748269e-05
7.4804049e-07
1.6858154e-06
7.84715e-05
4.0887474e-07
9.8850048e-07
7.8494744e-05
1.9491198e-07
3.8636734e-07
7.8853422e-05
8.1088232e-08
-1.2906031e-07
7.9571827e-05
2.817369e-08
-5.9039352e-07
8.0713004e-05
5.321459e-09
-1.0709514e-06
8.2356175e-05
-7.1045704e-09
-1.6055246e-06
8.457901e-05
-1.407994e-08
-2.2075634e-06
8.7423975e-05
-1.956468e-08
-2.8484562e-06
9.0783745e-05
-2.6042447e-08
-3.3770654e-06
9.4283361e-05
-3.0314651e-08
-3.5314946e-06
9.6542207e-05
-2.8806684e-08
-2.2875685e-06
9.7377642e-05
-2.078303e-08
-8.5573421e-07
9.698339e-05
-1.3908815e-08
3.7767189e-07
9.5480909e-05
-6.967965e-09
1.4893644e-06
9.2897888e-05
-2.3296858e-09
2.5738505e-06
8.9767566e-05
-3.4330219e-10
3.1209333e-06
8.6672536e-05
-1.4286195e-09
3.0841992e-06
8.3968654e-05
-2.4510969e-09
2.6931472e-06
8.1789778e-05
-1.4512161e-09
2.1701984e-06
8.0130791e-05
4.3305938e-10
1.6531625e-06
7.8915584e-05
1.6174794e-09
1.2121116e-06
7.804843e-05
2.2783836e-09
8.660148e-07
7.7441647e-05
2.4112587e-09
6.0693714e-07
7.7024372e-05
2.2426972e-09
4.180483e-07
7.6743492e-05
1.9953905e-09
2.8195198e-07
7.6560847e-05
1.8823005e-09
1.8364315e-07
2.2165195e-09
1.1682938e-07
8.0389886e-05
-1.36841e-06
2.3470579e-06
8.0374654e-05
-1.1765108e-06
2.3684259e-06
8.0178902e-05
-7.4795262e-07
1.6917458e-06
7.9999857e-05
-4.0888589e-07
9.9680504e-07
7.9997669e-05
-1.94966e-07
3.9206586e-07
8.0288301e-05
-8.1138504e-08
-1.2840504e-07
8.0939147e-05
-2.8202761e-08
-5.9446982e-07
8.2029153e-05
-5.3299092e-09
-1.0793538e-06
8.3632701e-05
7.1126843e-09
-1.6177654e-06
8.582874e-05
1.4097011e-08
-2.2242163e-06
8.8659648e-05
1.9587038e-08
-2.87006e-06
9.2013147e-05
2.6066402e-08
-3.4056069e-06
9.5523742e-05
3.0337864e-08
-3.5712477e-06
9.7809763e-05
2.8829584e-08
-2.3436577e-06
9.8679089e-05
2.0805639e-08
-9.1091434e-07
9.8320329e-05
1.3932066e-08
3.3091872e-07
9.6842547e-05
6.9921241e-09
1.463822e-06
9.426955e-05
2.3565436e-09
2.5683105e-06
9.1132942e-05
3.6260608e-10
3.1359024e-06
8.8012802e-05
1.4540709e-09
3.1172576e-06
8.5270754e-05
2.472759e-09
2.7371236e-06
8.3051726e-05
1.4738455e-09
2.2161033e-06
8.1357854e-05
-4.1855476e-10
1.6947241e-06
8.0114627e-05
-1.60027e-09
1.2464441e-06
7.92264e-05
-2.2596514e-09
8.9276535e-07
7.8604256e-05
-2.3889184e-09
6.2694443e-07
7.8176161e-05
-2.2095668e-09
4.3254729e-07
7.7887953e-05
-1.9447899e-09
2.9214775e-07
7.7701089e-05
-1.8047365e-09
1.9055074e-07
-2.1154884e-09
1.2121865e-07
7.9837172e-05
-3.5589194e-06
2.3533379e-06
7.9259299e-05
-2.9677814e-06
2.3691431e-06
7.8748408e-05
-1.9228847e-06
1.6858229e-06
7.8471627e-05
-1.1206154e-06
9.8851121e-07
7.8494839e-05
-6.0455893e-07
3.8638009e-07
7.8853486e-05
-3.1073734e-07
-1.2904823e-07
7.9571868e-05
-1.5620253e-07
-5.9038197e-07
8.0713029e-05
-7.5549543e-08
-1.0709414e-06
8.2356189e-05
-3.0532424e-08
-1.6055148e-06
8.4579019e-05
-1.1777349e-09
-2.2075553e-06
8.7423979e-05
2.3077794e-08
-2.8484501e-06
9.0783745e-05
4.3360241e-08
-3.3770606e-06
9.4283359e-05
6.2213862e-08
-3.53149e-06
9.6542205e-05
5.7548354e-08
-2.2875642e-06
9.7377641e-05
4.1099647e-08
-8.5572998e-07
9.6983389e-05
3.0505041e-08
3.7767862e-07
9.5480909e-05
2.0099394e-08
1.489373e-06
9.2897891e-05
1.15142e-08
2.5738606e-06
8.9767567e-05
9.7434388e-09
3.1209434e-06
8.6672539e-05
1.2270738e-08
3.0842108e-06
8.3968657e-05
1.3195413e-08
2.6931591e-06
8.1789782e-05
1.0138322e-08
2.1702104e-06
8.0130792e-05
5.3978922e-09
1.6531737e-06
7.8915585e-05
1.4847325e-09
1.2121225e-06
7.8048432e-05
-1.1311436e-09
8.6602447e-07
7.7441652e-05
-2.5536805e-09
6.069446e-07
7.7024388e-05
-2.9968529e-09
4.1805152e-07
7.6743523e-05
-3.030458e-09
2.8195009e-07
7.6560904e-05
-2.8227899e-09
1.8363744e-07
-4.1728059e-09
1.1682239e-07
7.4253394e-05
2.187687e-06
6.9199968e-05
2.0856441e-06
6.5810175e-05
1.4669085e-06
6.3853793e-05
8.3576623e-07
6.2946437e-05
3.0279775e-07
6.2772596e-05
-1.368969e-07
6.3142506e-05
-5.2611222e-07
6.399701e-05
-9.3005333e-07
6.5342108e-05
-1.3756311e-06
6.7209808e-05
-1.8688772e-06
6.9610195e-05
-2.3773094e-06
7.2412358e-05
-2.7588028e-06
7.5275542e-05
-2.80097e-06
7.6956294e-05
-1.6232033e-06
7.7397438e-05
-4.0004486e-07
7.6801866e-05
6.2607683e-07
7.5330029e-05
1.4919373e-06
7.2989692e-05
2.3518506e-06
7.0310639e-05
2.6887966e-06
6.7784533e-05
2.5383764e-06
6.5660568e-05
2.1371607e-06
6.3998846e-05
1.6718604e-06
6.2760216e-05
1.2440283e-06
6.1865839e-05
8.9586129e-07
6.1233517e-05
6.3119106e-07
6.0793601e-05
4.3736215e-07
6.0492372e-05
2.9823245e-07
6.0290267e-05
1.9907441e-07
6.0159458e-05
1.2798594e-07
8.0317354e-08
7.722187e-05
3.725891e-06
1.2399233e-06
7.4746666e-05
3.2446793e-06
1.3161608e-06
7.3206164e-05
2.088791e-06
9.1860592e-07
7.2406984e-05
1.2299636e-06
4.0496613e-07
7.2150903e-05
6.7825388e-07
-1.1939432e-07
7.2343755e-05
3.514081e-07
-6.8117547e-07
7.2941507e-05
1.7193094e-07
-1.2958151e-06
7.3974553e-05
7.5160035e-08
-2.0382792e-06
7.5552904e-05
1.7670477e-08
-2.9716725e-06
7.7844104e-05
-2.3769502e-08
-4.1363282e-06
8.1069412e-05
-6.0432931e-08
-5.5422055e-06
8.5269221e-05
-8.1069397e-08
-6.877565e-06
9.0069861e-05
-8.47104e-08
-7.5169224e-06
9.1389217e-05
3.2589854e-08
-2.9751673e-06
9.1028438e-05
9.6462324e-08
-1.3574291e-07
9.0016527e-05
1.0499794e-07
1.5329752e-06
8.8298679e-05
8.124562e-08
3.1285267e-06
8.5113999e-05
7.8054063e-08
5.4584639e-06
8.1735653e-05
4.7925062e-08
6.0192055e-06
7.8738998e-05
4.3721998e-09
5.5306468e-06
7.6343427e-05
-2.2073271e-08
4.55479e-06
7.4556823e-05
-2.8775094e-08
3.4872224e-06
7.3269156e-05
-2.386844e-08
2.555545e-06
7.2355678e-05
-1.6233838e-08
1.8255555e-06
7.1714501e-05
-9.4599968e-09
1.28181e-06
7.1269706e-05
-4.743743e-09
8.8688615e-07
7.0965926e-05
-1.8332927e-09
6.0383441e-07
7.0763624e-05
-1.0457211e-10
4.0147691e-07
7.0635041e-05
1.1097489e-09
2.5546139e-07
3.403143e-09
1.5361393e-07
8.328375e-05
1.4467351e-06
1.3487432e-06
8.6111245e-05
1.2949186e-06
1.4914052e-06
8.8016189e-05
8.1519604e-07
1.0544667e-06
8.9301977e-05
4.4998848e-07
4.8268748e-07
9.0254277e-05
2.2198315e-07
-1.0966219e-07
9.1139238e-05
9.5736169e-08
-7.5834875e-07
9.2162419e-05
3.4070318e-08
-1.4757137e-06
9.3507963e-05
6.5569363e-09
-2.3478926e-06
9.5383553e-05
-9.0756767e-09
-3.4543682e-06
9.8027264e-05
-1.8299654e-08
-4.856744e-06
0.00010173834
-2.8376928e-08
-6.5915904e-06
0.00010667857
-3.7414229e-08
-8.3609513e-06
0.00011251553
-3.5362234e-08
-9.4178039e-06
0.00011471293
-6.4924707e-10
-4.4517263e-06
0.00011491243
2.4112267e-08
-9.8287862e-07
0.00011407716
3.0249178e-08
1.2876883e-06
0.0001123027
2.2416998e-08
3.3226483e-06
0.00010879265
1.6746515e-08
6.1452148e-06
0.00010480914
8.2052174e-09
7.1441634e-06
0.00010107228
-6.1379415e-09
6.8315669e-06
9.7943719e-05
-1.5988922e-08
5.8156218e-06
9.552683e-05
-1.6644341e-08
4.5749565e-06
9.3747289e-05
-1.290919e-08
3.4217444e-06
9.2470806e-05
-8.5300218e-09
2.4808901e-06
9.1570835e-05
-5.0193929e-09
1.7615457e-06
9.0945789e-05
-2.6274218e-09
1.229867e-06
9.0518899e-05
-1.1194227e-09
8.4422397e-07
9.0234433e-05
-1.4181576e-10
5.6645522e-07
9.0053434e-05
5.2813176e-10
3.6522398e-07
1.4009491e-09
2.2354076e-07
8.3889661e-05
-1.4465962e-06
1.3507279e-06
8.7352705e-05
-1.2947331e-06
1.4950345e-06
8.9615583e-05
-8.1511781e-07
1.0591811e-06
9.1024907e-05
-4.5003325e-07
4.8750312e-07
9.1967996e-05
-2.2208536e-07
-1.0695442e-07
9.2791398e-05
-9.5837974e-08
-7.6023351e-07
9.3747234e-05
-3.4147554e-08
-1.4820871e-06
9.5039421e-05
-6.6065527e-09
-2.3583775e-06
9.6872434e-05
9.0390102e-09
-3.4688934e-06
9.9488275e-05
1.8282128e-08
-4.8766387e-06
0.00010318136
2.8367082e-08
-6.6198899e-06
0.00010810647
3.7406468e-08
-8.4055332e-06
0.00011395296
3.5353973e-08
-9.4884599e-06
0.00011621171
6.3375088e-10
-4.6036893e-06
0.00011649606
-2.4120147e-08
-1.1470351e-06
0.00011570868
-3.0255903e-08
1.1788104e-06
0.00011395846
-2.242356e-08
3.2588815e-06
0.00011044985
-1.6754708e-08
6.1104166e-06
0.00010645094
-8.2160609e-09
7.1512376e-06
0.00010267534
6.1205207e-09
6.8806034e-06
9.9489695e-05
1.5970329e-08
5.8908046e-06
9.7017122e-05
1.662533e-08
4.6554065e-06
9.5192067e-05
1.2890953e-08
3.4939788e-06
9.3881732e-05
8.5141214e-09
2.5397351e-06
9.2957799e-05
5.0084777e-09
1.8066704e-06
9.2316358e-05
2.625928e-09
1.2631327e-06
9.1878557e-05
1.1370515e-09
8.6809118e-07
9.1587217e-05
1.9356895e-10
5.8315248e-07
9.1402273e-05
-4.5143559e-10
3.764742e-07
-1.2930111e-09
2.3063889e-07
8.3283801e-05
-3.7258033e-06
1.3487439e-06
8.6111371e-05
-3.2445681e-06
1.491408e-06
8.801635e-05
-2.0887467e-06
1.0544724e-06
8.9302127e-05
-1.2299939e-06
4.8269534e-07
9.0254392e-05
-6.7831796e-07
-1.0965226e-07
9.1139316e-05
-3.5147053e-07
-7.583395e-07
9.2162469e-05
-1.7197693e-07
-1.4757063e-06
9.3508001e-05
-7.5187948e-08
-2.3478912e-06
9.5383573e-05
-1.7685171e-08
-3.4543632e-06
9.8027275e-05
2.3764649e-08
-4.8567399e-06
0.00010173835
6.0433132e-08
-6.5915885e-06
0.00010667857
8.107049e-08
-8.3609506e-06
0.00011251553
8.4709732e-08
-9.4178051e-06
0.00011471293
-3.2592556e-08
-4.4517313e-06
0.00011491242
-9.6463814e-08
-9.8288226e-07
0.00011407715
-1.0499875e-07
1.2876894e-06
0.0001123027
-8.1246642e-08
3.3226528e-06
0.00010879264
-7.8056876e-08
6.1452197e-06
0.00010480913
-4.7931272e-08
7.1441672e-06
0.00010107228
-4.3826753e-09
6.8315702e-06
9.7943719e-05
2.2060811e-08
5.8156257e-06
9.5526832e-05
2.876113e-08
4.5749619e-06
9.3747292e-05
2.3853359e-08
3.4217507e-06
9.2470812e-05
1.6220088e-08
2.4808968e-06
9.1570844e-05
9.4483725e-09
1.7615521e-06
9.0945804e-05
4.7390985e-09
1.2298721e-06
9.0518924e-05
1.8413986e-09
8.442272e-07
9.0234482e-05
1.290103e-10
5.6645579e-07
9.0053498e-05
-1.0517533e-09
3.6522191e-07
-3.3280796e-09
2.2353927e-07
7.7221959e-05
1.2399247e-06
7.4746869e-05
1.3161656e-06
7.3206416e-05
9.1861488e-07
7.240721e-05
4.0497828e-07
7.2151069e-05
-1.1937878e-07
7.2343861e-05
-6.8115945e-07
7.294157e-05
-1.2957983e-06
7.3974591e-05
-2.0382617e-06
7.5552927e-05
-2.9716522e-06
7.7844119e-05
-4.1363047e-06
8.1069421e-05
-5.5421783e-06
8.5269222e-05
-6.8775339e-06
9.0069855e-05
-7.5168924e-06
9.1389206e-05
-2.975147e-06
9.1028425e-05
-1.3572782e-07
9.0016518e-05
1.5329852e-06
8.8298674e-05
3.1285348e-06
8.5113999e-05
5.4584682e-06
8.1735656e-05
6.019208e-06
7.8739001e-05
5.5306493e-06
7.6343427e-05
4.5547957e-06
7.4556816e-05
3.4872319e-06
7.3269141e-05
2.5555574e-06
7.2355653e-05
1.8255693e-06
7.1714468e-05
1.2818242e-06
7.126967e-05
8.8689909e-07
7.09659e-05
6.038436e-07
7.0763622e-05
4.0148159e-07
7.0635092e-05
2.5546386e-07
1.5361435e-07
7.6996438e-05
3.7208678e-06
5.2261767e-07
7.4442239e-05
3.249922e-06
6.2043773e-07
7.2853803e-05
2.0883394e-06
4.187027e-07
7.1965489e-05
1.2257758e-06
6.750432e-08
7.1519182e-05
6.7165035e-07
-3.4473761e-07
7.1359421e-05
3.4238927e-07
-8.6380437e-07
7.1451751e-05
1.5852355e-07
-1.5466679e-06
7.1847781e-05
5.3976764e-08
-2.4882864e-06
7.2720716e-05
-1.5408627e-08
-3.8291989e-06
7.4418562e-05
-7.6682479e-08
-5.7574915e-06
7.764237e-05
-1.4854557e-07
-8.6174684e-06
8.3263848e-05
-1.9919953e-07
-1.2299843e-05
9.2549497e-05
-2.2609877e-07
-1.6576473e-05
9.6414159e-05
2.6143165e-08
-6.8659723e-06
9.7544802e-05
1.5599025e-07
-1.4223756e-06
9.7124779e-05
1.6577812e-07
1.7872195e-06
9.5325791e-05
1.5281127e-07
4.7747037e-06
8.9197695e-05
2.0366393e-07
1.1382896e-05
8.3232054e-05
1.1720702e-07
1.1867639e-05
7.8278232e-05
5.133091e-09
1.0479336e-05
7.4863034e-05
-5.2884766e-08
8.0228729e-06
7.2866769e-05
-5.8830774e-08
5.5423185e-06
7.1803443e-05
-4.2750955e-08
3.6616217e-06
7.1263916e-05
-2.4834496e-08
2.3899168e-06
7.0998427e-05
-1.1869136e-08
1.559168e-06
7.0870706e-05
-4.3430192e-09
1.0189502e-06
7.0810208e-05
-5.7404598e-10
6.6490665e-07
7.0781803e-05
8.766044e-10
4.2900528e-07
7.0768002e-05
1.3182522e-09
2.6794409e-07
1.4679782e-09
1.6074978e-07
8.3061961e-05
1.4441766e-06
5.6347345e-07
8.5817586e-05
1.2970709e-06
6.8863127e-07
8.7671169e-05
8.1466026e-07
4.7456247e-07
8.8848501e-05
4.4765923e-07
8.3472854e-08
8.9579232e-05
2.1896257e-07
-3.8770587e-07
9.0058103e-05
9.2569525e-08
-9.8740003e-07
9.0492763e-05
3.0312072e-08
-1.7821623e-06
9.1082255e-05
1.6903865e-09
-2.8850982e-06
9.2098533e-05
-1.9236331e-08
-4.4668178e-06
9.3965528e-05
-3.3227133e-08
-6.7671947e-06
9.7488566e-05
-5.3894959e-08
-1.0209279e-05
0.00010378831
-7.7105948e-08
-1.4782788e-05
0.0001144799
-7.0573734e-08
-2.026492e-05
0.00011982769
1.9808126e-08
-9.7931812e-06
0.00012211719
6.4529833e-08
-3.1809211e-06
0.00012250879
6.2731107e-08
9.9913451e-07
0.00012092141
5.9377154e-08
5.0034698e-06
0.00011436795
6.2347347e-08
1.2839987e-05
0.00010741434
3.2578872e-08
1.4182406e-05
0.00010119123
-1.4075515e-08
1.3073879e-05
9.6539727e-05
-3.5745032e-08
1.0449986e-05
9.3610368e-05
-3.431794e-08
7.4798035e-06
9.1952503e-05
-2.4385689e-08
5.0612433e-06
9.107137e-05
-1.4420132e-08
3.3516094e-06
9.0621118e-05
-7.3409004e-09
2.207269e-06
9.0397249e-05
-3.2084066e-09
1.4526011e-06
9.0288041e-05
-1.0947353e-09
9.5395286e-07
9.0235365e-05
-1.2439852e-10
6.2013285e-07
9.0209871e-05
3.411252e-10
3.9169431e-07
4.7879063e-10
2.3827807e-07
8.3673393e-05
-1.444038e-06
5.655495e-07
8.7071087e-05
-1.2968873e-06
6.9129903e-07
8.9282536e-05
-8.1458633e-07
4.7697806e-07
9.0579873e-05
-4.4770988e-07
8.5535274e-08
9.1297726e-05
-2.1907169e-07
-3.8677274e-07
9.1710885e-05
-9.267881e-08
-9.8814434e-07
9.2074106e-05
-3.0398354e-08
-1.7845981e-06
9.2607583e-05
-1.6964576e-09
-2.8884673e-06
9.3572045e-05
1.9188227e-08
-4.4717798e-06
9.5401144e-05
3.3195736e-08
-6.7721605e-06
9.8890922e-05
5.3867023e-08
-1.021743e-05
0.00010513731
7.7075207e-08
-1.48061e-05
0.00011581664
7.0541367e-08
-2.0308908e-05
0.00012127403
-1.984367e-08
-1.002143e-05
0.00012369816
-6.4568863e-08
-3.4420608e-06
0.00012420765
-6.2765526e-08
7.9481769e-07
0.00012267938
-5.9404371e-08
4.905924e-06
0.00011615858
-6.2371096e-08
1.2755936e-05
0.00010920011
-3.2604324e-08
1.4174899e-05
0.00010289711
1.4040564e-08
1.3155486e-05
9.8133323e-05
3.5710196e-08
1.0583133e-05
9.5106893e-05
3.4283592e-08
7.6132346e-06
9.3381652e-05
2.4354315e-08
5.1704806e-06
9.2459987e-05
1.4392478e-08
3.4325867e-06
9.1987831e-05
7.3202024e-09
2.2641659e-06
9.1752998e-05
3.1971501e-09
1.4915597e-06
9.1638581e-05
1.1023874e-09
9.8031178e-07
9.1583635e-05
1.5513974e-10
6.3781812e-07
9.1557359e-05
-2.6024104e-10
4.0335179e-07
-3.7048097e-10
2.4557994e-07
8.3062013e-05
-3.7207797e-06
5.6347227e-07
8.5817715e-05
-3.2498113e-06
6.8863063e-07
8.7671334e-05
-2.0882974e-06
4.7456442e-07
8.8848651e-05
-1.2258096e-06
8.3477556e-08
8.9579347e-05
-6.7171879e-07
-3.8770027e-07
9.0058178e-05
-3.4245618e-07
-9.8739388e-07
9.0492802e-05
-1.5857306e-07
-1.782155e-06
9.1082303e-05
-5.4002921e-08
-2.8850856e-06
9.2098552e-05
1.5388906e-08
-4.4668136e-06
9.3965535e-05
7.6666861e-08
-6.767194e-06
9.7488564e-05
1.4853101e-07
-1.0209281e-05
0.0001037883
1.9918042e-07
-1.478279e-05
0.00011447988
2.2607668e-07
-2.0264924e-05
0.00011982767
-2.6168664e-08
-9.7931975e-06
0.00012211718
-1.5601382e-07
-3.1809469e-06
0.00012250879
-1.6579558e-07
9.9911065e-07
0.0001209214
-1.5282295e-07
5.0034577e-06
0.00011436795
-2.0367409e-07
1.2839979e-05
0.00010741433
-1.1722061e-07
1.4182397e-05
0.00010119123
-5.1511838e-09
1.3073866e-05
9.6539731e-05
5.2860942e-08
1.0449975e-05
9.3610373e-05
5.8806324e-08
7.4797967e-06
9.1952511e-05
4.2727081e-08
5.0612401e-06
9.1071379e-05
2.4812177e-08
3.3516092e-06
9.0621132e-05
1.1849555e-08
2.2072699e-06
9.0397268e-05
4.3294892e-09
1.452603e-06
9.028807e-05
5.7364214e-10
9.5395415e-07
9.0235405e-05
-8.5827104e-10
6.2013479e-07
9.0209935e-05
-1.2682387e-09
3.9169973e-07
-1.3955868e-09
2.3828544e-07
7.6996529e-05
5.2261613e-07
7.4442447e-05
6.2043659e-07
7.2854059e-05
4.1870472e-07
7.1965718e-05
6.7509717e-08
7.1519352e-05
-3.4473081e-07
7.1359532e-05
-8.6379598e-07
7.1451818e-05
-1.5466575e-06
7.1847826e-05
-2.4882725e-06
7.2720746e-05
-3.8291829e-06
7.4418579e-05
-5.7574715e-06
7.7642377e-05
-8.6174455e-06
8.3263836e-05
-1.2299812e-05
9.2549468e-05
-1.6576448e-05
9.6414124e-05
-6.8659711e-06
9.7544774e-05
-1.4223926e-06
9.7124764e-05
1.7872e-06
9.5325784e-05
4.7746921e-06
8.9197695e-05
1.1382882e-05
8.3232063e-05
1.186762e-05
7.8278246e-05
1.0479315e-05
7.4863045e-05
8.0228579e-06
7.2866772e-05
5.5423112e-06
7.1803436e-05
3.6616199e-06
7.1263899e-05
2.3899192e-06
7.0998401e-05
1.5591716e-06
7.0870674e-05
1.0189551e-06
7.0810182e-05
6.6490934e-07
7.0781796e-05
4.2900959e-07
7.0768042e-05
2.6794891e-07
1.6075533e-07
7.6604477e-05
3.7263237e-06
1.9181737e-07
7.3742602e-05
3.2626229e-06
2.1968937e-07
7.1966638e-05
2.092104e-06
1.0256307e-07
7.0922272e-05
1.2228675e-06
-1.1099763e-07
7.0325516e-05
6.688224e-07
-4.1680418e-07
6.9964123e-05
3.4037685e-07
-8.4278836e-07
6.9734022e-05
1.5422519e-07
-1.4707919e-06
6.9648818e-05
3.9758708e-08
-2.4428412e-06
6.9880479e-05
-5.6576385e-08
-4.0042828e-06
7.0859535e-05
-1.6397257e-07
-6.5725748e-06
7.3599334e-05
-3.190692e-07
-1.1038199e-05
7.9839866e-05
-4.0875452e-07
-1.813162e-05
9.0958844e-05
-1.5462738e-08
-2.7679988e-05
8.2478153e-05
1.6147183e-06
7.9745238e-05
1.3105394e-06
8.0637006e-05
8.9545123e-07
8.465752e-05
7.5419057e-07
7.7336438e-05
1.0418106e-06
1.7662167e-05
7.359154e-05
4.6620093e-07
1.5146337e-05
7.1027865e-05
5.1561375e-08
1.2991449e-05
7.0137348e-05
-1.1735378e-07
9.0307432e-06
6.9951266e-05
-1.4277252e-07
5.8711735e-06
7.000691e-05
-1.127702e-07
3.7187481e-06
7.0135229e-05
-7.461726e-08
2.3362152e-06
7.0271684e-05
-4.5296284e-08
1.4680084e-06
7.0391235e-05
-2.6305077e-08
9.2570449e-07
7.0486621e-05
-1.490931e-08
5.8442974e-07
7.0558352e-05
-8.4021404e-09
3.6567666e-07
7.0610076e-05
-4.8276904e-09
2.2104803e-07
-3.8167328e-09
1.2537525e-07
8.2638492e-05
1.4445767e-06
2.0672868e-07
8.5045939e-05
1.3015809e-06
2.4222579e-07
8.6680311e-05
8.1612016e-07
1.1617518e-07
8.7662864e-05
4.4667749e-07
-1.2289029e-07
8.8194827e-05
2.1788507e-07
-4.687316e-07
8.8410677e-05
9.1614244e-08
-9.5448744e-07
8.8428255e-05
2.8287143e-08
-1.6738024e-06
8.8380586e-05
-6.6229975e-09
-2.7910477e-06
8.8484182e-05
-3.4751624e-08
-4.5922379e-06
8.9204746e-05
-7.305271e-08
-7.5786788e-06
9.1619642e-05
-1.3192355e-07
-1.281132e-05
9.7964156e-05
-1.8610388e-07
-2.1349953e-05
0.00011113168
-5.5118003e-08
-3.339279e-05
0.00010227926
6.7396165e-07
9.9787246e-05
6.2162947e-07
0.00010129281
3.8901857e-07
0.00010676164
2.8883574e-07
9.9183762e-05
3.8776557e-07
2.1071908e-05
9.5112253e-05
1.9687318e-07
1.8523243e-05
9.1803195e-05
1.6694515e-08
1.6417804e-05
9.0274899e-05
-5.9633132e-08
1.1920561e-05
8.9671424e-05
-6.806239e-08
8.0085684e-06
8.948958e-05
-5.2210563e-08
5.1825277e-06
8.9501152e-05
-3.3526435e-08
3.2989464e-06
8.9594119e-05
-1.9629634e-08
2.0886346e-06
8.9708433e-05
-1.0969611e-08
1.3229524e-06
8.9815385e-05
-5.99094e-09
8.3808181e-07
8.9903611e-05
-3.2750917e-09
5.267806e-07
8.9971004e-05
-1.9236022e-09
3.2139677e-07
-1.5158398e-09
1.8502136e-07
8.3246628e-05
-1.4444384e-06
2.0793638e-07
8.6297362e-05
-1.3013961e-06
2.4354203e-07
8.8289497e-05
-8.1604266e-07
1.1700602e-07
8.9391136e-05
-4.4672164e-07
-1.2270492e-07
8.9910102e-05
-2.1798493e-07
-4.6986815e-07
9.0062756e-05
-9.1712907e-08
-9.5747158e-07
9.0013647e-05
-2.8361359e-08
-1.6788402e-06
8.9909681e-05
6.5576656e-09
-2.7976825e-06
8.9969884e-05
3.4714122e-08
-4.6014478e-06
9.0640069e-05
7.3021563e-08
-7.5884198e-06
9.2982723e-05
1.3188765e-07
-1.2823896e-05
9.9177477e-05
1.8606608e-07
-2.1373023e-05
0.00011217792
5.5094276e-08
-3.3419567e-05
0.00010350443
-6.7397056e-07
0.0001013056
-6.216091e-07
0.00010287841
-3.8897285e-07
0.00010836196
-2.8878324e-07
0.00010086424
-3.8771359e-07
2.1029131e-05
9.6839306e-05
-1.9684524e-07
1.8593552e-05
9.3448214e-05
-1.6696765e-08
1.657997e-05
9.1808623e-05
5.9612023e-08
1.2103479e-05
9.1116861e-05
6.8035938e-08
8.1688984e-06
9.0877858e-05
5.2184597e-08
5.3050884e-06
9.0858522e-05
3.3504778e-08
3.3848913e-06
9.093764e-05
1.9613279e-08
2.1458052e-06
9.1047225e-05
1.0963271e-08
1.3600423e-06
9.1153603e-05
6.0015276e-09
8.6194114e-07
9.1242781e-05
3.3138755e-09
5.4205092e-07
9.1311182e-05
2.0065006e-09
3.3102057e-07
1.6354961e-09
1.9071759e-07
8.2638544e-05
-3.7262358e-06
2.0672529e-07
8.5046069e-05
-3.2625115e-06
2.4222177e-07
8.6680475e-05
-2.0920597e-06
1.1617464e-07
8.7663016e-05
-1.2228973e-06
-1.2288694e-07
8.8194942e-05
-6.6888515e-07
-4.6872652e-07
8.8410755e-05
-3.4043751e-07
-9.5448238e-07
8.8428308e-05
-1.542706e-07
-1.6737981e-06
8.8380613e-05
-3.9788863e-08
-2.7910441e-06
8.8484194e-05
5.655554e-08
-4.5922367e-06
8.9204747e-05
1.6395471e-07
-7.5786794e-06
9.1619632e-05
3.1904552e-07
-1.2811325e-05
9.7964141e-05
4.0872293e-07
-2.1349955e-05
0.00011113166
1.543952e-08
-3.3392793e-05
0.00010227924
-1.6147404e-06
9.9787218e-05
-1.3105373e-06
0.00010129278
-8.9542708e-07
0.00010676162
-7.5415793e-07
9.9183757e-05
-1.0417778e-06
2.1071903e-05
9.511226e-05
-4.6618368e-07
1.8523232e-05
9.180321e-05
-5.1564606e-08
1.6417784e-05
9.0274914e-05
1.1733676e-07
1.1920546e-05
8.9671436e-05
1.4275225e-07
8.008558e-06
8.9489591e-05
1.1274825e-07
5.1825218e-06
8.9501162e-05
7.4598474e-08
3.2989441e-06
8.9594133e-05
4.5278248e-08
2.0886339e-06
8.9708451e-05
2.6295235e-08
1.3229534e-06
8.9815415e-05
1.490881e-08
8.3808231e-07
8.9903651e-05
8.4280639e-09
5.2678473e-07
8.997107e-05
4.885562e-09
3.2140209e-07
3.8977194e-09
1.8502883e-07
7.6604568e-05
1.9181263e-07
7.374281e-05
2.1968282e-07
7.1966895e-05
1.0256018e-07
7.0922504e-05
-1.1099649e-07
7.0325688e-05
-4.1680067e-07
6.9964239e-05
-8.4278424e-07
6.9734098e-05
-1.4707869e-06
6.9648871e-05
-2.4428345e-06
6.9880518e-05
-4.0042743e-06
7.0859563e-05
-6.5725623e-06
7.359935e-05
-1.1038186e-05
7.9839855e-05
-1.8131594e-05
9.0958816e-05
-2.7679969e-05
8.2478104e-05
7.9745175e-05
8.0636947e-05
8.4657482e-05
7.733644e-05
1.7662147e-05
7.3591566e-05
1.5146311e-05
7.10279e-05
1.2991416e-05
7.0137372e-05
9.0307223e-06
6.9951277e-05
5.8711589e-06
7.0006904e-05
3.7187406e-06
7.0135212e-05
2.3362104e-06
7.0271655e-05
1.4680068e-06
7.0391203e-05
9.2570199e-07
7.0486593e-05
5.8442846e-07
7.0558353e-05
3.6567702e-07
7.0610139e-05
2.2104888e-07
1.2537793e-07
7.6464675e-05
3.7271265e-06
1.5828546e-11
7.3420509e-05
3.26383e-06
2.5877267e-11
7.14314e-05
2.0916524e-06
1.8838164e-11
7.0101527e-05
1.2188677e-06
7.6678311e-12
6.902265e-05
6.6207271e-07
1.0499952e-12
6.7850387e-05
3.2947492e-07
-7.0647503e-13
6.6243994e-05
1.3560138e-07
-6.735758e-13
6.3795239e-05
5.9135066e-09
5.6318106e-13
5.9917346e-05
-1.2639106e-07
1.1982281e-12
5.3640501e-05
-2.957323e-07
2.5052099e-12
4.3277325e-05
-6.7502788e-07
4.5653852e-12
2.6275863e-05
-1.1301623e-06
4.7954647e-12
-1.4041271e-06
1.850246e-12
1.6027602e-05
1.6346742e-06
-1.0925905e-10
3.1240951e-05
-6.6923183e-08
-8.8307751e-11
4.4438325e-05
-2.0590018e-07
-2.4985234e-11
5.3853553e-05
-3.8448754e-07
2.3052896e-12
6.0084369e-05
-3.5965521e-07
1.3138977e-11
6.4045552e-05
-2.4244916e-07
1.4523158e-11
6.6520473e-05
-1.3872053e-07
1.4116831e-11
6.8061975e-05
-7.3505289e-08
1.2453141e-11
6.9024881e-05
-3.7213836e-08
1.2042434e-11
6.9627367e-05
-1.8068767e-08
1.2294042e-11
7.000179e-05
-8.7587613e-09
1.2085692e-11
7.0227703e-05
-4.876486e-09
1.14311e-11
-6.5419706e-09
9.6673321e-12
8.2489371e-05
1.4444681e-06
1.6510601e-11
8.4693494e-05
1.3019062e-06
2.5755822e-11
8.6085486e-05
8.1581848e-07
1.7041046e-11
8.6736317e-05
4.45143e-07
3.8770326e-12
8.6713946e-05
2.1571646e-07
-4.1394338e-12
8.6000271e-05
8.8668196e-08
-5.951973e-12
8.4438173e-05
2.3900837e-08
-4.110656e-12
8.1669286e-05
-1.6246022e-08
-7.5855927e-13
7.7002129e-05
-5.1475036e-08
2.8140311e-12
6.924007e-05
-1.123583e-07
6.7481507e-12
5.5992625e-05
-2.3891375e-07
1.0422422e-11
3.3976046e-05
-4.6355112e-07
1.5003165e-11
-8.2087909e-07
7.6291682e-12
2.1824819e-05
8.8188062e-07
-1.1712567e-10
4.0252236e-05
2.8993486e-08
-9.0041984e-11
5.6601818e-05
-1.3766129e-07
-1.7318826e-11
6.8318098e-05
-1.8022311e-07
1.7307779e-11
7.6135508e-05
-1.6852823e-07
3.1096196e-11
8.119065e-05
-1.1509591e-07
3.2758551e-11
8.4416436e-05
-6.5591033e-08
3.1069891e-11
8.6465753e-05
-3.421518e-08
2.771431e-11
8.7768429e-05
-1.6964548e-08
2.6182303e-11
8.8596437e-05
-8.0185588e-09
2.4176811e-11
8.9118195e-05
-3.7599366e-09
2.3129913e-11
8.9436922e-05
-2.2260445e-09
2.0009746e-11
-2.7046188e-09
1.6603771e-11
8.3096726e-05
-1.444335e-06
1.3263502e-11
8.5943881e-05
-1.3017283e-06
2.1437492e-11
8.7692435e-05
-8.1574431e-07
1.5199649e-11
8.8460054e-05
-4.4518613e-07
4.6883979e-12
8.8421718e-05
-2.1581295e-07
-2.106461e-12
8.7641682e-05
-8.8763178e-08
-3.9353698e-12
8.6010717e-05
-2.397174e-08
-2.5997559e-12
8.3180602e-05
1.618607e-08
3.403985e-13
7.8476241e-05
5.143456e-08
3.6730064e-12
7.0663136e-05
1.1231909e-07
7.3972135e-12
5.7361456e-05
2.3885831e-07
1.1822776e-11
3.5061357e-05
4.6350999e-07
1.5057662e-11
8.2090012e-07
1.0284881e-11
2.2792656e-05
-8.8154154e-07
-1.018921e-10
4.144412e-05
-2.8845508e-08
-7.375537e-11
5.774876e-05
1.3767495e-07
-6.8061308e-12
6.9491806e-05
1.8018537e-07
2.4780734e-11
7.732366e-05
1.6848009e-07
3.6458169e-11
8.2398561e-05
1.1505346e-07
3.7435821e-11
8.5652267e-05
6.5559746e-08
3.4756047e-11
8.7729631e-05
3.4194533e-08
3.1663357e-11
8.9055721e-05
1.6958444e-08
2.9143211e-11
8.9901584e-05
8.0315347e-09
2.7704431e-11
9.0436041e-05
3.8077491e-09
2.631209e-11
9.0762495e-05
2.3179101e-09
2.2912758e-11
2.8366775e-09
1.9434777e-11
8.2489422e-05
-3.7270417e-06
1.006839e-11
8.469362e-05
-3.2637225e-06
1.7465349e-11
8.6085647e-05
-2.0916098e-06
1.3842835e-11
8.6736464e-05
-1.2188967e-06
6.0947147e-12
8.6714057e-05
-6.621331e-07
5.8927673e-13
8.6000347e-05
-3.2953345e-07
-1.4285218e-12
8.4438223e-05
-1.3564552e-07
-8.3466976e-13
8.1669309e-05
-5.9447045e-09
1.0572079e-12
7.7002136e-05
1.2636677e-07
3.741129e-12
6.9240062e-05
2.9570623e-07
7.250341e-12
5.59926e-05
6.7498487e-07
1.0898478e-11
3.3976021e-05
1.1301189e-06
1.5255362e-11
1.4041198e-06
8.5814233e-12
2.1824917e-05
-1.6344622e-06
-9.4209712e-11
4.0252359e-05
6.7011306e-08
-6.6718027e-11
5.6601923e-05
2.0590074e-07
-4.7431189e-12
6.8318173e-05
3.8445751e-07
2.3343694e-11
7.6135558e-05
3.5961991e-07
3.3449867e-11
8.1190682e-05
2.424176e-07
3.3716463e-11
8.4416459e-05
1.3869562e-07
3.1377429e-11
8.6465773e-05
7.3486358e-08
2.801684e-11
8.7768455e-05
3.7203517e-08
2.6422761e-11
8.8596471e-05
1.8072952e-08
2.477317e-11
8.9118248e-05
8.7899827e-09
2.5045864e-11
8.9437007e-05
4.9393733e-09
2.16633e-11
6.626349e-09
1.869902e-11
7.6464764e-05
6.8164703e-12
7.3420712e-05
1.2631608e-11
7.1431652e-05
1.0368339e-11
7.0101754e-05
4.7832578e-12
6.902282e-05
4.9806846e-13
6.7850504e-05
-1.7425497e-12
6.6244074e-05
-2.2999905e-12
6.3795296e-05
-1.9432372e-12
5.991739e-05
-1.0692499e-12
5.3640533e-05
4.8003853e-13
4.327733e-05
2.3577555e-12
2.627585e-05
3.978311e-12
7.0351436e-13
1.6027764e-05
-7.9848948e-11
3.1241148e-05
-6.1236345e-11
4.4438478e-05
-1.4134346e-11
5.3853654e-05
4.76368e-12
6.0084422e-05
1.0312002e-11
6.4045569e-05
1.0838573e-11
6.6520467e-05
8.41032e-12
6.8061952e-05
8.3803241e-12
6.9024851e-05
6.2802235e-12
6.9627343e-05
9.1729416e-12
7.0001801e-05
9.2885473e-12
7.0227779e-05
9.7884653e-12
9.1084936e-12
7.6464678e-05
3.7271241e-06
-1.9178627e-07
7.3420516e-05
3.2638273e-06
-2.1963922e-07
7.143141e-05
2.091652e-06
-1.0252775e-07
7.0101536e-05
1.2188695e-06
1.1101264e-07
6.9022656e-05
6.620754e-07
4.1680564e-07
6.7850391e-05
3.2947717e-07
8.427866e-07
6.6243996e-05
1.3560331e-07
1.4707911e-06
6.3795241e-05
5.9137607e-09
2.4428425e-06
5.9917346e-05
-1.2639042e-07
4.0042861e-06
5.36405e-05
-2.9573165e-07
6.5725802e-06
4.3277324e-05
-6.7502667e-07
1.1038208e-05
2.6275859e-05
-1.1301597e-06
1.8131629e-05
-1.4041326e-06
2.7679993e-05
1.6027564e-05
1.6346631e-06
-1.7662337e-05
3.1240886e-05
-6.6932997e-08
-1.5146477e-05
4.4438281e-05
-2.0590618e-07
-1.2991513e-05
5.3853525e-05
-3.8449102e-07
-9.0307512e-06
6.0084352e-05
-3.5965733e-07
-5.8711567e-06
6.4045541e-05
-2.4244995e-07
-3.7187245e-06
6.6520468e-05
-1.3872175e-07