/*--------------------------------*- C++ -*----------------------------------*\
| =========                 |                                                 |
| \\      /  F ield         | OpenFOAM: The Open Source CFD Toolbox           |
|  \\    /   O peration     | Version:  2212                                  |
|   \\  /    A nd           | Website:  www.openfoam.com                      |
|    \\/     M anipulation  |                                                 |
\*---------------------------------------------------------------------------*/
FoamFile
{
    version     2.0;
    format      ascii;
    arch        "LSB;label=32;scalar=64";
    class       volVectorField;
    location    "10/bottomWater";
    object      U;
}
// * * * * * * * * * * * * * * * * * * * * * * * * * * * * * * * * * * * * * //

dimensions      [0 1 -1 0 0 0 0];

internalField   nonuniform List<vector> 
1460
(
(0.00091405781 5.0990428e-05 3.5852948e-05)
(0.00090280066 4.4895116e-05 3.4659958e-05)
(0.000844497 2.9466462e-05 2.436453e-05)
(0.00080715288 1.7722681e-05 1.4974638e-05)
(0.00079007545 1.0182586e-05 7.8456539e-06)
(0.00078435841 5.7342432e-06 2.502462e-06)
(0.00078596211 3.2419912e-06 -1.6460688e-06)
(0.00079364671 1.8405777e-06 -5.0355353e-06)
(0.00080732098 1.0058842e-06 -7.9525703e-06)
(0.00082730586 4.5672722e-07 -1.0335335e-05)
(0.000854 3.3081935e-08 -1.1640114e-05)
(0.00088680801 -3.1077457e-07 -1.0404579e-05)
(0.00092367917 -7.3987408e-07 -4.9547307e-06)
(0.00095361808 -8.0808832e-07 9.2399807e-06)
(0.00096753173 -7.5182231e-07 1.9411036e-05)
(0.00096636397 -6.7025923e-07 2.25084e-05)
(0.00095316351 -5.4817223e-07 2.2499342e-05)
(0.0009291115 -3.8393252e-07 2.2561308e-05)
(0.00089681777 -3.6301498e-07 2.0313076e-05)
(0.00086287786 -4.0957914e-07 1.6292273e-05)
(0.00083299224 -4.0023642e-07 1.2141933e-05)
(0.00080918615 -3.1698343e-07 8.6778554e-06)
(0.00079120715 -2.1007105e-07 6.0656664e-06)
(0.00077808862 -1.1995357e-07 4.2020969e-06)
(0.00076874875 -5.8531317e-08 2.9088855e-06)
(0.0007622138 -2.16819e-08 2.0175882e-06)
(0.00075770833 -4.9703597e-10 1.4002338e-06)
(0.00075465767 1.1767145e-08 9.6767186e-07)
(0.00075262584 1.2441892e-08 6.5561966e-07)
(0.00075093943 4.265145e-08 4.7888092e-07)
(0.00097400556 4.6074765e-05 3.8584659e-05)
(0.00099651924 3.8710779e-05 3.9977963e-05)
(0.00099054596 2.4745741e-05 2.8936396e-05)
(0.00098244898 1.371508e-05 1.8253265e-05)
(0.000980098 6.6787901e-06 9.8918673e-06)
(0.00098259942 2.8699791e-06 3.4539865e-06)
(0.00098934614 1.0505207e-06 -1.6185555e-06)
(0.0010007949 2.2739615e-07 -5.8008224e-06)
(0.0010179804 -1.6150685e-07 -9.4821728e-06)
(0.0010419541 -4.1050932e-07 -1.2675709e-05)
(0.001073581 -6.4359561e-07 -1.4842403e-05)
(0.0011126521 -8.6009804e-07 -1.4356004e-05)
(0.0011571999 -9.796209e-07 -9.0420955e-06)
(0.0011951338 -8.3164919e-07 6.6741683e-06)
(0.0012155003 -5.4582664e-07 1.9351768e-05)
(0.0012180502 -3.3558859e-07 2.4483478e-05)
(0.0012059509 -1.4505322e-07 2.5401487e-05)
(0.0011801804 -3.2492641e-08 2.5996619e-05)
(0.0011434108 8.39645e-09 2.4121493e-05)
(0.001102756 -1.8511603e-08 1.9978246e-05)
(0.0010653338 -4.688591e-08 1.5337804e-05)
(0.0010344947 -2.6366938e-08 1.1281938e-05)
(0.0010106296 2.124936e-08 8.1075749e-06)
(0.0009929167 6.2176074e-08 5.7631811e-06)
(0.00098016213 8.2129756e-08 4.0830943e-06)
(0.00097117387 8.4481217e-08 2.8903611e-06)
(0.00096494855 7.7322901e-08 2.040724e-06)
(0.00096071807 6.795544e-08 1.4293224e-06)
(0.00095789661 6.3079754e-08 9.7719033e-07)
(0.00095558121 7.2169502e-08 7.0348467e-07)
(0.00097775533 1.1142613e-09 3.8219954e-05)
(0.0010068574 1.5219555e-09 3.9760098e-05)
(0.0010070347 7.3854733e-10 2.8934382e-05)
(0.0010014863 -1.5879026e-10 1.834861e-05)
(0.00099928607 -5.5800901e-10 9.9810812e-06)
(0.001001021 -5.3940671e-10 3.4908044e-06)
(0.0010068498 -3.5721383e-10 -1.637275e-06)
(0.0010175336 -1.713373e-10 -5.8652719e-06)
(0.0010341504 -3.6833805e-11 -9.582888e-06)
(0.0010577092 4.2899235e-11 -1.2807918e-05)
(0.0010890834 8.9857366e-11 -1.4996543e-05)
(0.00112803 1.0389422e-10 -1.4535734e-05)
(0.0011726052 9.5307996e-11 -9.2804493e-06)
(0.0012107952 8.4250327e-11 6.341493e-06)
(0.0012315787 7.6382506e-11 1.9056536e-05)
(0.0012345596 7.7015152e-11 2.4368053e-05)
(0.0012228508 7.439182e-11 2.5444581e-05)
(0.0011973111 6.8279708e-11 2.615842e-05)
(0.0011605672 7.3947102e-11 2.4367509e-05)
(0.0011196991 6.4078374e-11 2.0286234e-05)
(0.0010818586 6.8799813e-11 1.5684022e-05)
(0.0010505117 7.7595859e-11 1.1622943e-05)
(0.001026167 1.0702759e-10 8.411622e-06)
(0.0010080585 1.1593816e-10 6.01636e-06)
(0.00099499947 1.4445824e-10 4.284888e-06)
(0.00098578758 1.7480719e-10 3.04565e-06)
(0.0009794023 2.8201896e-10 2.1564037e-06)
(0.00097506127 4.2937784e-10 1.5124665e-06)
(0.0009721699 6.5994786e-10 1.0340602e-06)
(0.00096980827 8.5428546e-10 7.3920386e-07)
(0.00097400574 -4.6073061e-05 3.8584644e-05)
(0.00099652022 -3.8708388e-05 3.9977999e-05)
(0.00099054765 -2.4744449e-05 2.8936508e-05)
(0.00098245074 -1.3715117e-05 1.8253438e-05)
(0.0009800994 -6.6794073e-06 9.8920769e-06)
(0.0009826004 -2.8705391e-06 3.4542056e-06)
(0.00098934678 -1.050777e-06 -1.6183543e-06)
(0.0010007953 -2.2734373e-07 -5.8006505e-06)
(0.0010179806 1.6179435e-07 -9.4820115e-06)
(0.0010419542 4.1095229e-07 -1.2675574e-05)
(0.0010735811 6.4411891e-07 -1.4842299e-05)
(0.0011126521 8.6064391e-07 -1.4355913e-05)
(0.0011571999 9.8015098e-07 -9.04199e-06)
(0.0011951337 8.3215267e-07 6.6743035e-06)
(0.0012155003 5.4630948e-07 1.9351938e-05)
(0.0012180502 3.3606369e-07 2.4483681e-05)
(0.0012059509 1.45518e-07 2.540171e-05)
(0.0011801804 3.2944458e-08 2.5996849e-05)
(0.0011434108 -7.9659844e-09 2.4121714e-05)
(0.001102756 1.8927125e-08 1.9978479e-05)
(0.0010653338 4.7279236e-08 1.5338042e-05)
(0.0010344948 2.6755147e-08 1.1282174e-05)
(0.0010106297 -2.0889014e-08 8.1077889e-06)
(0.00099291671 -6.1819714e-08 5.7633804e-06)
(0.00098016214 -8.1800587e-08 4.0832605e-06)
(0.00097117394 -8.410431e-08 2.8904855e-06)
(0.00096494875 -7.6817078e-08 2.0407623e-06)
(0.00096071845 -6.71874e-08 1.4292721e-06)
(0.0009578972 -6.1921403e-08 9.7707736e-07)
(0.00095558238 -7.0696858e-08 7.033366e-07)
(0.00091405815 -5.0989888e-05 3.585299e-05)
(0.00090280225 -4.489447e-05 3.4660106e-05)
(0.00084449966 -2.9466268e-05 2.4364744e-05)
(0.00080715548 -1.7722926e-05 1.4974887e-05)
(0.00079007741 -1.0182983e-05 7.8459319e-06)
(0.00078435968 -5.7345951e-06 2.5027664e-06)
(0.00078596284 -3.2422301e-06 -1.6457587e-06)
(0.00079364708 -1.8407006e-06 -5.0352332e-06)
(0.00080732114 -1.0059092e-06 -7.9522783e-06)
(0.00082730592 -4.5667605e-07 -1.0335047e-05)
(0.00085400003 -3.2995807e-08 -1.1639824e-05)
(0.00088680802 3.1086566e-07 -1.0404274e-05)
(0.00092367917 7.3994982e-07 -4.9544083e-06)
(0.00095361809 8.0814472e-07 9.2403001e-06)
(0.00096753177 7.5186688e-07 1.9411353e-05)
(0.00096636403 6.7029455e-07 2.2508699e-05)
(0.0009531636 5.4819454e-07 2.2499626e-05)
(0.00092911159 3.83937e-07 2.2561581e-05)
(0.00089681788 3.6297933e-07 2.0313351e-05)
(0.00086287796 4.095302e-07 1.6292555e-05)
(0.0008329923 4.0015459e-07 1.2142227e-05)
(0.00080918612 3.1689187e-07 8.6781585e-06)
(0.00079120699 2.099326e-07 6.0659758e-06)
(0.00077808831 1.1983595e-07 4.2023885e-06)
(0.0007687483 5.8394199e-08 2.9091632e-06)
(0.00076221332 2.1628521e-08 2.0178112e-06)
(0.00075770792 5.372407e-10 1.4003884e-06)
(0.00075465761 -1.1512436e-08 9.677167e-07)
(0.00075262626 -1.1987206e-08 6.5557306e-07)
(0.00075094113 -4.2066684e-08 4.7876588e-07)
(0.00094811324 5.3374876e-05 3.9530673e-05)
(0.00095249259 4.9330915e-05 3.9357311e-05)
(0.00092667008 3.2619168e-05 2.780091e-05)
(0.00090866248 1.9818134e-05 1.457819e-05)
(0.00090206536 1.1534929e-05 2.6042775e-06)
(0.00090218246 6.4707191e-06 -8.1750217e-06)
(0.00090721811 3.5201207e-06 -1.8965987e-05)
(0.00091727425 1.7991578e-06 -3.0991293e-05)
(0.00093330765 7.0740911e-07 -4.5203481e-05)
(0.00095704927 -6.6228234e-08 -6.1971042e-05)
(0.00099107161 -7.0915883e-07 -8.0653341e-05)
(0.0010369046 -9.7889906e-07 -9.7294535e-05)
(0.0010974527 -1.2298204e-06 -0.00010534002)
(0.0011407469 8.6336809e-07 -7.4452309e-05)
(0.0011461192 1.7616113e-06 -3.6440412e-05)
(0.0011342454 1.8052836e-06 -1.0098726e-06)
(0.0011166007 1.4230211e-06 3.1322397e-05)
(0.0010868694 1.5387024e-06 6.4267606e-05)
(0.0010443217 9.9056601e-07 7.9407159e-05)
(0.0010019429 2.4394229e-07 7.8424879e-05)
(0.00096737301 -2.2500053e-07 6.8123735e-05)
(0.00094142947 -3.5899901e-07 5.4392094e-05)
(0.00092261115 -3.1728685e-07 4.1040933e-05)
(0.00090919838 -2.249436e-07 2.9839587e-05)
(0.00089975036 -1.3827614e-07 2.1151911e-05)
(0.00089316152 -7.3365419e-08 1.4700432e-05)
(0.0008886251 -2.9504221e-08 1.0024664e-05)
(0.00088556454 -1.3264475e-09 6.6680666e-06)
(0.00088355399 1.1046432e-08 4.2483303e-06)
(0.00088198276 4.7543469e-08 2.5714922e-06)
(0.0010156884 4.8524806e-05 4.2808259e-05)
(0.0010582065 4.2391828e-05 4.4466918e-05)
(0.0010902328 2.6750942e-05 3.1556176e-05)
(0.0011098252 1.4961282e-05 1.7029155e-05)
(0.0011229287 7.5240683e-06 3.6227264e-06)
(0.0011337679 3.3385672e-06 -8.8091383e-06)
(0.0011452023 1.2444175e-06 -2.1427327e-05)
(0.0011595797 2.7081009e-07 -3.5558548e-05)
(0.0011792294 -2.1815412e-07 -5.237718e-05)
(0.0012068448 -5.7696141e-07 -7.2461059e-05)
(0.0012458972 -9.4061639e-07 -9.5330097e-05)
(0.001299104 -1.2415349e-06 -0.00011688954)
(0.0013707897 -1.1450593e-06 -0.00012923384)
(0.0014273554 -4.6555758e-09 -9.7615425e-05)
(0.0014426284 8.562484e-07 -5.4392489e-05)
(0.0014350513 1.0604044e-06 -1.191352e-05)
(0.0014177123 7.9697054e-07 2.8391838e-05)
(0.0013856762 6.0450327e-07 6.9372816e-05)
(0.0013373387 3.1158883e-07 9.1928046e-05)
(0.0012859786 -1.3887724e-07 9.5211837e-05)
(0.0012416461 -4.335836e-07 8.5810413e-05)
(0.0012070124 -4.7286872e-07 7.0543375e-05)
(0.0011812109 -3.7441306e-07 5.4427829e-05)
(0.0011625362 -2.4944047e-07 4.0226643e-05)
(0.0011492892 -1.4630862e-07 2.8863422e-05)
(0.0011400321 -7.512346e-08 2.0252113e-05)
(0.0011336584 -3.0642716e-08 1.3927191e-05)
(0.0011293583 -3.2728252e-09 9.3497581e-06)
(0.001126536 1.7589149e-08 6.0359899e-06)
(0.0011243639 4.5116804e-08 3.7210644e-06)
(0.0010199852 1.2486453e-09 4.2922579e-05)
(0.0010697959 1.624804e-09 4.4639101e-05)
(0.0011085259 6.3750912e-10 3.1756728e-05)
(0.0011311746 -4.7825122e-10 1.7220563e-05)
(0.0011447131 -1.0132586e-09 3.7311687e-06)
(0.0011548942 -1.0339716e-09 -8.8237187e-06)
(0.0011654313 -8.3419934e-10 -2.1566561e-05)
(0.0011790253 -6.0493865e-10 -3.5813547e-05)
(0.0011980677 -3.9842271e-10 -5.2739627e-05)
(0.0012252457 -2.7650507e-10 -7.2960231e-05)
(0.0012640112 -2.1681448e-10 -9.6001911e-05)
(0.0013170052 -1.9984528e-10 -0.00011780743)
(0.0013885749 -2.0044333e-10 -0.00013052807)
(0.0014456298 -1.9588401e-10 -9.9452183e-05)
(0.0014619389 -1.9103376e-10 -5.6254114e-05)
(0.0014552236 -1.7402142e-10 -1.3463682e-05)
(0.0014383155 -1.6908032e-10 2.7385404e-05)
(0.0014064496 -1.815078e-10 6.8921348e-05)
(0.0013580266 -2.035058e-10 9.2122207e-05)
(0.0013062926 -2.2238893e-10 9.6036e-05)
(0.0012613379 -2.3376735e-10 8.7043966e-05)
(0.0012259733 -2.3671964e-10 7.1883111e-05)
(0.0011995235 -2.2109539e-10 5.5658727e-05)
(0.0011803526 -1.9541063e-10 4.124926e-05)
(0.0011667506 -1.3842088e-10 2.9659774e-05)
(0.001157248 -5.4535166e-11 2.0845522e-05)
(0.001150709 1.0524969e-10 1.4355447e-05)
(0.0011463014 3.3658779e-10 9.6498382e-06)
(0.0011434143 6.5916453e-10 6.2382699e-06)
(0.0011411993 9.199036e-10 3.8488683e-06)
(0.0010156886 -4.8522895e-05 4.2808289e-05)
(0.0010582076 -4.2389264e-05 4.4467013e-05)
(0.0010902347 -2.6749762e-05 3.155634e-05)
(0.0011098273 -1.496174e-05 1.7029376e-05)
(0.0011229303 -7.5253019e-06 3.6229777e-06)
(0.0011337691 -3.3397913e-06 -8.8088836e-06)
(0.0011452031 -1.2452979e-06 -2.1427099e-05)
(0.0011595803 -2.7130981e-07 -3.5558395e-05)
(0.0011792298 2.1796065e-07 -5.2376988e-05)
(0.001206845 5.76977e-07 -7.2460893e-05)
(0.0012458973 9.4074104e-07 -9.5329975e-05)
(0.001299104 1.2416889e-06 -0.00011688945)
(0.0013707897 1.1451969e-06 -0.00012923377)
(0.0014273554 4.771668e-09 -9.7615419e-05)
(0.0014426284 -8.5612835e-07 -5.4392498e-05)
(0.0014350513 -1.0602766e-06 -1.1913484e-05)
(0.0014177123 -7.9684819e-07 2.8391936e-05)
(0.0013856761 -6.044116e-07 6.9372954e-05)
(0.0013373387 -3.1155081e-07 9.1928191e-05)
(0.0012859786 1.3886071e-07 9.5212005e-05)
(0.0012416461 4.3351734e-07 8.58106e-05)
(0.0012070124 4.7278425e-07 7.0543581e-05)
(0.0011812109 3.7431457e-07 5.4428041e-05)
(0.0011625362 2.4935838e-07 4.0226858e-05)
(0.0011492893 1.4626107e-07 2.8863621e-05)
(0.0011400323 7.5188322e-08 2.0252269e-05)
(0.0011336588 3.0939499e-08 1.3927275e-05)
(0.0011293588 3.9445498e-09 9.3497474e-06)
(0.0011265367 -1.6424291e-08 6.0358807e-06)
(0.001124365 -4.3563276e-08 3.7209384e-06)
(0.00094811366 -5.3374272e-05 3.9530727e-05)
(0.00095249446 -4.9330239e-05 3.935747e-05)
(0.00092667321 -3.2619059e-05 2.7801181e-05)
(0.00090866565 -1.9818564e-05 1.457855e-05)
(0.00090206784 -1.1535562e-05 2.6046855e-06)
(0.00090218413 -6.4713075e-06 -8.1745893e-06)
(0.00090721914 -3.520576e-06 -1.8965546e-05)
(0.00091727486 -1.7994785e-06 -3.0990853e-05)
(0.00093330802 -7.0764374e-07 -4.5203017e-05)
(0.00095704949 6.6073127e-08 -6.1970556e-05)
(0.00099107174 7.0904034e-07 -8.0652816e-05)
(0.0010369047 9.7877839e-07 -9.7293984e-05)
(0.0010974526 1.2296715e-06 -0.00010533948)
(0.0011407467 -8.6353901e-07 -7.4451904e-05)
(0.0011461191 -1.7617669e-06 -3.644014e-05)
(0.0011342453 -1.8054316e-06 -1.0096504e-06)
(0.0011166006 -1.4231707e-06 3.1322596e-05)
(0.0010868694 -1.5388729e-06 6.4267782e-05)
(0.0010443217 -9.9077925e-07 7.9407333e-05)
(0.0010019429 -2.4420526e-07 7.8425072e-05)
(0.00096737303 2.2468915e-07 6.8123988e-05)
(0.00094142943 3.5867295e-07 5.4392407e-05)
(0.000922611 3.169411e-07 4.1041308e-05)
(0.0009091981 2.2461772e-07 2.9839974e-05)
(0.00089974996 1.3797032e-07 2.1152312e-05)
(0.00089316111 7.3156562e-08 1.4700768e-05)
(0.00088862479 2.9457787e-08 1.0024917e-05)
(0.00088556455 1.539643e-09 6.6681557e-06)
(0.00088355437 -1.0594921e-08 4.2483067e-06)
(0.00088198426 -4.6944795e-08 2.5713862e-06)
(0.00094684485 5.3274846e-05 1.070958e-05)
(0.00094878564 4.9345014e-05 1.2715397e-05)
(0.00092254747 3.2585301e-05 8.6041417e-06)
(0.00090386941 1.9750935e-05 1.7772837e-06)
(0.0008955759 1.1432702e-05 -6.4604102e-06)
(0.00089238533 6.3088594e-06 -1.6090469e-05)
(0.00089210338 3.2584945e-06 -2.7951977e-05)
(0.00089495886 1.3804343e-06 -4.3241448e-05)
(0.00090241548 3.6382765e-08 -6.3243578e-05)
(0.00091733907 -1.0792952e-06 -8.8973837e-05)
(0.00094651411 -2.3861431e-06 -0.00012127875)
(0.00099648177 -3.0503733e-06 -0.00015197918)
(0.0010981458 -4.1707282e-06 -0.00016363806)
(0.0011923558 -6.8879483e-08 -2.5648537e-05)
(0.0012226414 1.9876031e-06 3.3134304e-05)
(0.0012216737 2.3460794e-06 6.2678722e-05)
(0.0012088707 2.0793217e-06 9.0364916e-05)
(0.0011623119 3.44014e-06 0.000146876)
(0.0010796915 2.0789618e-06 0.00014892412)
(0.0010049332 5.2005927e-07 0.00012992337)
(0.00095188952 -3.4688342e-07 0.00010242424)
(0.00091952338 -5.2645124e-07 7.5721668e-05)
(0.00090189348 -3.9224145e-07 5.4079848e-05)
(0.00089294463 -2.1145105e-07 3.795376e-05)
(0.00088852766 -7.9903949e-08 2.6342163e-05)
(0.00088637979 -7.20161e-09 1.8094406e-05)
(0.00088535695 2.488388e-08 1.226646e-05)
(0.00088487869 3.4922342e-08 8.1387339e-06)
(0.00088465451 3.2275317e-08 5.1811269e-06)
(0.0008844931 2.776561e-08 3.1380934e-06)
(0.0010147783 4.8464263e-05 1.1640409e-05)
(0.0010548794 4.2489043e-05 1.4296744e-05)
(0.0010861928 2.6752371e-05 9.9233649e-06)
(0.0011050021 1.4898097e-05 2.278602e-06)
(0.0011161423 7.4334715e-06 -7.1425495e-06)
(0.0011231649 3.2392134e-06 -1.8307679e-05)
(0.0011284567 1.1206456e-06 -3.2179224e-05)
(0.0011343894 8.7639335e-08 -5.0213881e-05)
(0.0011437525 -5.0748419e-07 -7.4090722e-05)
(0.0011603824 -1.0615778e-06 -0.0001054227)
(0.0011921454 -1.7640347e-06 -0.00014583676)
(0.001247638 -2.5154522e-06 -0.00018755213)
(0.0013609638 -2.2537128e-06 -0.00020924417)
(0.0014757747 7.1474019e-07 -5.4287355e-05)
(0.0015239915 2.2185659e-06 2.2513419e-05)
(0.0015359457 2.1638276e-06 6.4227934e-05)
(0.0015287393 2.0539464e-06 0.00010081049)
(0.0014815674 2.148853e-06 0.00016843885)
(0.0013904102 1.1474958e-06 0.00017899199)
(0.0012996108 -3.52898e-07 0.00016212222)
(0.0012295319 -1.1017417e-06 0.00013217704)
(0.0011834073 -1.0942866e-06 0.00010040658)
(0.0011565024 -7.8648849e-07 7.3152902e-05)
(0.0011420529 -4.7050415e-07 5.2086879e-05)
(0.0011346173 -2.4296416e-07 3.655395e-05)
(0.0011308776 -1.0834669e-07 2.5341836e-05)
(0.0011290386 -3.8420119e-08 1.732773e-05)
(0.0011281513 -5.4062529e-09 1.1606272e-05)
(0.0011277266 8.2281099e-09 7.4862844e-06)
(0.0011274525 1.3856745e-08 4.608901e-06)
(0.0010191229 1.2451648e-09 1.1629686e-05)
(0.0010666014 1.6056143e-09 1.4291713e-05)
(0.0011046427 5.9680203e-10 9.9264169e-06)
(0.0011264869 -5.321473e-10 2.2886438e-06)
(0.001138015 -1.0769659e-09 -7.148677e-06)
(0.0011443294 -1.1040873e-09 -1.834785e-05)
(0.0011486738 -9.1902175e-10 -3.2257747e-05)
(0.0011537761 -7.5530769e-10 -5.0323476e-05)
(0.0011624606 -4.9807465e-10 -7.4239326e-05)
(0.0011785428 -3.9332156e-10 -0.00010561561)
(0.0012098525 -3.7163353e-10 -0.00014614762)
(0.0012648597 -3.8977593e-10 -0.00018821433)
(0.0013774479 -3.9052628e-10 -0.00021047451)
(0.0014929058 -4.4006315e-10 -5.7940842e-05)
(0.0015428683 -4.6685379e-10 1.8555756e-05)
(0.0015566267 -4.3168828e-10 6.1516223e-05)
(0.0015504131 -3.6797273e-10 9.9393562e-05)
(0.0015038735 -3.3148649e-10 0.00016756257)
(0.0014129473 -3.405619e-10 0.00017905159)
(0.0013215332 -3.6412269e-10 0.00016315522)
(0.0012501667 -3.8171029e-10 0.00013379373)
(0.0012026534 -3.7900489e-10 0.00010210478)
(0.0011747027 -3.4674142e-10 7.4641026e-05)
(0.0011596004 -3.0766651e-10 5.3272069e-05)
(0.0011517993 -2.3104771e-10 3.7446397e-05)
(0.0011478711 -1.3638057e-10 2.5990985e-05)
(0.0011459413 4.9545479e-11 1.778924e-05)
(0.0011450132 2.8815676e-10 1.1927926e-05)
(0.0011445725 5.8991292e-10 7.7038109e-06)
(0.0011442918 8.8966005e-10 4.7475927e-06)
(0.0010147786 -4.8462348e-05 1.1640405e-05)
(0.0010548805 -4.2486496e-05 1.4296758e-05)
(0.0010861948 -2.6751244e-05 9.9234164e-06)
(0.0011050041 -1.4898634e-05 2.2786872e-06)
(0.001116144 -7.4347986e-06 -7.142449e-06)
(0.0011231661 -3.2405364e-06 -1.8307578e-05)
(0.0011284574 -1.1216288e-06 -3.2179125e-05)
(0.0011343899 -8.8264318e-08 -5.0213781e-05)
(0.0011437529 5.0715053e-07 -7.4090671e-05)
(0.0011603825 1.0614048e-06 -0.00010542269)
(0.0011921454 1.7639071e-06 -0.0001458368)
(0.0012476379 2.5152714e-06 -0.00018755219)
(0.0013609637 2.2534924e-06 -0.00020924427)
(0.0014757745 -7.1503284e-07 -5.4287518e-05)
(0.0015239913 -2.218888e-06 2.2513305e-05)
(0.0015359457 -2.1640735e-06 6.4227943e-05)
(0.0015287393 -2.054089e-06 0.00010081056)
(0.0014815673 -2.1489549e-06 0.0001684389)
(0.0013904101 -1.1476441e-06 0.00017899199)
(0.0012996107 3.5265912e-07 0.00016212217)
(0.001229532 1.1014434e-06 0.000132177)
(0.0011834074 1.0939819e-06 0.00010040658)
(0.0011565025 7.8620537e-07 7.3152923e-05)
(0.0011420529 4.7025323e-07 5.2086916e-05)
(0.0011346174 2.4277287e-07 3.6553989e-05)
(0.0011308778 1.082602e-07 2.5341873e-05)
(0.0011290389 3.8570021e-08 1.732776e-05)
(0.0011281518 5.9164222e-09 1.1606281e-05)
(0.0011277274 -7.1547693e-09 7.4863254e-06)
(0.0011274536 -1.2337654e-08 4.6089749e-06)
(0.00094684528 -5.3274234e-05 1.0709579e-05)
(0.00094878755 -4.9344336e-05 1.2715421e-05)
(0.00092255066 -3.2585208e-05 8.6042149e-06)
(0.00090387264 -1.9751392e-05 1.777399e-06)
(0.00089557842 -1.1433369e-05 -6.460269e-06)
(0.00089238705 -6.3094869e-06 -1.6090302e-05)
(0.00089210446 -3.2589852e-06 -2.7951775e-05)
(0.00089495956 -1.3807587e-06 -4.3241195e-05)
(0.00090241592 -3.6698855e-08 -6.3243264e-05)
(0.00091733935 1.0790043e-06 -8.8973444e-05)
(0.00094651426 2.3858452e-06 -0.00012127827)
(0.00099648175 3.0499997e-06 -0.00015197858)
(0.0010981456 4.1703027e-06 -0.00016363751)
(0.0011923554 6.8474671e-08 -2.5648217e-05)
(0.001222641 -1.9879517e-06 3.3134498e-05)
(0.0012216734 -2.3463324e-06 6.2678882e-05)
(0.0012088706 -2.0795115e-06 9.0365017e-05)
(0.0011623119 -3.4403297e-06 0.00014687597)
(0.0010796916 -2.0792045e-06 0.00014892403)
(0.0010049334 -5.2038848e-07 0.00012992327)
(0.00095188969 3.4649832e-07 0.00010242421)
(0.00091952348 5.260519e-07 7.5721712e-05)
(0.00090189345 3.9183702e-07 5.4079937e-05)
(0.00089294446 2.1106057e-07 3.7953893e-05)
(0.00088852735 7.9535168e-08 2.6342296e-05)
(0.00088637943 6.9050944e-09 1.8094557e-05)
(0.00088535664 -2.5045081e-08 1.2266555e-05)
(0.00088487867 -3.4852487e-08 8.1388271e-06)
(0.00088465489 -3.1849018e-08 5.1812382e-06)
(0.00088449444 -2.7166224e-08 3.1382052e-06)
(0.00094461719 5.3443329e-05 7.5697895e-06)
(0.0009416777 4.9575566e-05 9.1890781e-06)
(0.000912347 3.2665931e-05 6.0607426e-06)
(0.00089172213 1.9723907e-05 3.6584679e-07)
(0.0008816628 1.1408475e-05 -7.3134761e-06)
(0.00087639806 6.3101782e-06 -1.7520895e-05)
(0.00087301688 3.243954e-06 -3.1687982e-05)
(0.00087107106 1.2527392e-06 -5.244024e-05)
(0.00087194641 -4.097261e-07 -8.4064889e-05)
(0.00087802594 -2.0166953e-06 -0.00013310657)
(0.00090279243 -4.3401214e-06 -0.00021256124)
(0.00095152297 -5.1126807e-06 -0.0003282468)
(0.0010705138 8.5791235e-07 -0.00049276647)
(0.0011308728 2.0545526e-05 -0.00025360847)
(0.00099321414 1.5459541e-05 -9.338302e-05)
(0.00098577535 1.2197119e-05 -1.5600008e-06)
(0.00103826 1.1501304e-05 8.0385306e-05)
(0.001038873 1.5884951e-05 0.00027751743)
(0.00093218735 6.5054051e-06 0.00028946201)
(0.00089503131 9.978256e-07 0.00026344599)
(0.00087842658 -1.3928002e-06 0.00019597295)
(0.00087352777 -1.8259579e-06 0.00013075328)
(0.00087377949 -1.4853944e-06 8.3133186e-05)
(0.00087554236 -1.0094732e-06 5.2063216e-05)
(0.00087745837 -6.3058861e-07 3.2623093e-05)
(0.00087915436 -3.7664188e-07 2.0573989e-05)
(0.00088053386 -2.1893284e-07 1.3039248e-05)
(0.0008815866 -1.2537678e-07 8.2213977e-06)
(0.00088236557 -6.9391195e-08 5.0390645e-06)
(0.00088311373 -5.5737596e-08 2.9608286e-06)
(0.0010125623 4.8464169e-05 8.1372543e-06)
(0.0010473715 4.2623001e-05 1.0108406e-05)
(0.0010749263 2.6789497e-05 6.7889471e-06)
(0.001091276 1.4856452e-05 4.2997904e-07)
(0.0011001512 7.3893173e-06 -8.2813704e-06)
(0.0011044557 3.1981494e-06 -1.9986899e-05)
(0.0011057268 1.0416215e-06 -3.6337656e-05)
(0.0011053928 -1.3790706e-07 -6.0391793e-05)
(0.0011056727 -1.1206866e-06 -9.7186842e-05)
(0.0011094253 -2.4458245e-06 -0.00015466653)
(0.0011309347 -4.4106999e-06 -0.00024820253)
(0.001178244 -6.1572764e-06 -0.0003874884)
(0.0013009626 -1.4996012e-06 -0.00059131067)
(0.0013895198 2.2734192e-05 -0.00034137822)
(0.0012433906 2.0566768e-05 -0.0001528425)
(0.0012359833 1.2799598e-05 -3.1528508e-05)
(0.0013036043 9.5258682e-06 7.7894072e-05)
(0.0013184121 1.287307e-05 0.0003104155)
(0.0012061383 6.519715e-06 0.00034437421)
(0.0011579427 5.9158621e-07 0.00032782284)
(0.0011329794 -1.8655607e-06 0.00025648466)
(0.0011218843 -2.1738455e-06 0.00017793787)
(0.0011183054 -1.6812494e-06 0.00011612709)
(0.0011180682 -1.0873256e-06 7.3885631e-05)
(0.0011191216 -6.4145736e-07 4.6721976e-05)
(0.0011205898 -3.6116623e-07 2.9630925e-05)
(0.001122051 -1.9870459e-07 1.8864681e-05)
(0.0011233007 -1.0951752e-07 1.1961663e-05)
(0.0011242903 -6.4920659e-08 7.4023155e-06)
(0.0011252717 -5.0601279e-08 4.4049299e-06)
(0.0010168977 1.24138e-09 8.2044566e-06)
(0.0010590638 1.6155564e-09 1.0192057e-05)
(0.0010933406 6.2790876e-10 6.8612145e-06)
(0.0011127257 -4.7470365e-10 4.8684817e-07)
(0.0011219838 -9.9393182e-10 -8.2521573e-06)
(0.0011255958 -1.0088864e-09 -1.9996724e-05)
(0.0011259675 -8.0987396e-10 -3.6384622e-05)
(0.0011248329 -5.8452463e-10 -6.0456626e-05)
(0.0011244937 -4.5080338e-10 -9.7281461e-05)
(0.0011277033 -4.0936661e-10 -0.00015473178)
(0.0011484557 -4.4873102e-10 -0.00024827095)
(0.0011948454 -4.3949992e-10 -0.00038774743)
(0.0013140145 -2.5109733e-10 -0.0005917632)
(0.0014029746 -1.0542648e-10 -0.00034648598)
(0.0012609004 1.5755801e-10 -0.00015894312)
(0.0012555806 3.606597e-10 -3.5950681e-05)
(0.0013231306 3.9629794e-10 7.577544e-05)
(0.0013389861 3.8223593e-10 0.0003075857)
(0.0012278441 1.5817668e-10 0.00034408065)
(0.0011791199 -1.0725197e-10 0.00032998717)
(0.0011528784 -2.595045e-10 0.00025988048)
(0.001140447 -3.0680044e-10 0.00018125225)
(0.0011359428 -2.9179971e-10 0.0001187542)
(0.0011351776 -2.5169945e-10 7.5749654e-05)
(0.001135972 -1.8496294e-10 4.7971663e-05)
(0.0011373381 -9.2970193e-11 3.0450041e-05)
(0.0011387751 7.9073181e-11 1.9398178e-05)
(0.001140032 3.1073169e-10 1.2308114e-05)
(0.0011410358 6.9990849e-10 7.624555e-06)
(0.0011420333 1.020486e-09 4.5403779e-06)
(0.0010125625 -4.846226e-05 8.1372155e-06)
(0.0010473727 -4.2620438e-05 1.0108369e-05)
(0.0010749283 -2.678832e-05 6.7889661e-06)
(0.0010912781 -1.4856898e-05 4.3005657e-07)
(0.0011001529 -7.390515e-06 -8.2812606e-06)
(0.0011044569 -3.1993231e-06 -1.9986783e-05)
(0.0011057276 -1.0424598e-06 -3.6337536e-05)
(0.0011053933 1.3741756e-07 -6.0391632e-05)
(0.0011056729 1.1204309e-06 -9.7186787e-05)
(0.0011094254 2.4456614e-06 -0.00015466652)
(0.0011309347 4.4104621e-06 -0.0002482026)
(0.0011782437 6.1569647e-06 -0.00038748842)
(0.0013009624 1.4994206e-06 -0.00059131073)
(0.0013895196 -2.2734266e-05 -0.00034137869)
(0.0012433903 -2.0566445e-05 -0.0001528434)
(0.001235983 -1.2798886e-05 -3.1529358e-05)
(0.0013036039 -9.5250118e-06 7.7893563e-05)
(0.0013184119 -1.2872194e-05 0.00031041519)
(0.0012061383 -6.5191504e-06 0.00034437387)
(0.0011579428 -5.9144609e-07 0.0003278224)
(0.0011329796 1.8654312e-06 0.0002564843)
(0.0011218845 2.1736394e-06 0.00017793763)
(0.0011183055 1.6810252e-06 0.00011612695)
(0.0011180683 1.0871529e-06 7.388559e-05)
(0.0011191218 6.4131437e-07 4.6721972e-05)
(0.00112059 3.6115248e-07 2.9630962e-05)
(0.0011220514 1.9888001e-07 1.8864702e-05)
(0.0011233013 1.1012326e-07 1.196174e-05)
(0.0011242911 6.6143662e-08 7.4024656e-06)
(0.001125273 5.2305744e-08 4.4051311e-06)
(0.00094461762 -5.3442718e-05 7.5697344e-06)
(0.00094167961 -4.9574882e-05 9.1890128e-06)
(0.0009123502 -3.266582e-05 6.0607426e-06)
(0.00089172537 -1.9724335e-05 3.659164e-07)
(0.00088166535 -1.1409105e-05 -7.3133594e-06)
(0.00087639983 -6.3107661e-06 -1.7520752e-05)
(0.00087301805 -3.2444354e-06 -3.1687811e-05)
(0.00087107185 -1.2531386e-06 -5.244001e-05)
(0.00087194696 4.093796e-07 -8.4064621e-05)
(0.00087802637 2.0163444e-06 -0.00013310621)
(0.00090279274 4.3396789e-06 -0.00021256086)
(0.00095152295 5.1120843e-06 -0.00032824622)
(0.0010705136 -8.5856179e-07 -0.00049276602)
(0.0011308723 -2.0546075e-05 -0.00025360873)
(0.00099321338 -1.5459795e-05 -9.3383891e-05)
(0.00098577452 -1.2197122e-05 -1.5608576e-06)
(0.0010382594 -1.1501209e-05 8.0384786e-05)
(0.0010388727 -1.5884878e-05 0.00027751698)
(0.0009321876 -6.5054708e-06 0.0002894614)
(0.00089503173 -9.9806685e-07 0.00026344528)
(0.00087842699 1.3924382e-06 0.00019597244)
(0.00087352799 1.8255758e-06 0.00013075298)
(0.00087377951 1.4849813e-06 8.3133042e-05)
(0.00087554219 1.0090996e-06 5.206318e-05)
(0.00087745805 6.3020754e-07 3.2623097e-05)
(0.00087915395 3.7636892e-07 2.0574021e-05)
(0.00088053352 2.1874256e-07 1.3039252e-05)
(0.00088158669 1.2552119e-07 8.2214602e-06)
(0.00088236612 6.9844775e-08 5.0391363e-06)
(0.00088311557 5.6381918e-08 2.9609349e-06)
(0.00094388841 5.3461524e-05 2.2403872e-07)
(0.00093893269 4.9582681e-05 -3.5567008e-07)
(0.00090710055 3.2642809e-05 -1.8242395e-06)
(0.00088347376 1.9643951e-05 -4.1068049e-06)
(0.0008688328 1.127224e-05 -7.4915058e-06)
(0.00085584522 6.0845584e-06 -1.2799095e-05)
(0.00083938739 2.8555093e-06 -2.1440644e-05)
(0.00081514265 5.5596438e-07 -3.5860786e-05)
(0.00077796838 -1.8158658e-06 -6.0541785e-05)
(0.0007153042 -4.3677516e-06 -0.00010380998)
(0.0006296644 -1.0689622e-05 -0.00018441056)
(0.00044103033 -1.5778209e-05 -0.00032133845)
(0.00023329736 -1.0283657e-05 -0.00048969786)
(0.00018314563 1.4607938e-05 0.00036230545)
(0.00024602378 -3.2533141e-06 0.00027702301)
(0.00050624676 -1.6097627e-06 0.00021754036)
(0.00062023354 -4.9013698e-06 0.00014542191)
(0.00071639941 -4.5000937e-06 9.2314052e-05)
(0.00078042399 -2.9832239e-06 5.7917981e-05)
(0.00081940138 -1.7091431e-06 3.6218323e-05)
(0.00084320602 -9.1312647e-07 2.2590487e-05)
(0.00085806446 -4.6526517e-07 1.407068e-05)
(0.0008673934 -2.2716373e-07 8.742682e-06)
(0.0008732093 -1.1054257e-07 5.3698397e-06)
(0.00087680739 -5.4606327e-08 3.1764004e-06)
(0.00087948969 -8.8338282e-08 1.7492375e-06)
(0.0010117902 4.8464315e-05 2.3123616e-07)
(0.0010444117 4.2639484e-05 -4.0599877e-07)
(0.00106915 2.6786371e-05 -2.0258173e-06)
(0.0010820373 1.4812072e-05 -4.6014864e-06)
(0.0010856619 7.3232288e-06 -8.4366484e-06)
(0.0010811424 3.1044381e-06 -1.4466702e-05)
(0.00106747 8.9448767e-07 -2.4311827e-05)
(0.0010415899 -3.9968634e-07 -4.0803513e-05)
(0.00099787064 -1.6767088e-06 -6.9164284e-05)
(0.00092193515 -3.7581857e-06 -0.00011936197)
(0.00081271366 -7.9671354e-06 -0.00021389354)
(0.0005723614 -1.5351694e-05 -0.00037952055)
(0.00030083987 -2.7323431e-05 -0.00059594927)
(0.00025539999 2.9424421e-05 0.00045314059)
(0.00032768813 1.0818947e-06 0.00035416222)
(0.00064262304 -4.0969847e-06 0.00028203762)
(0.00078964162 -5.7785637e-06 0.00019486365)
(0.0009079112 -5.4623429e-06 0.00012661574)
(0.00098896414 -3.7451225e-06 8.0640278e-05)
(0.0010394481 -2.1443828e-06 5.0926136e-05)
(0.0010707987 -1.1259767e-06 3.1962449e-05)
(0.0010906962 -5.6339884e-07 1.9976609e-05)
(0.0011034053 -2.6965892e-07 1.2437775e-05)
(0.0011114527 -1.2854236e-07 7.6631836e-06)
(0.0011164874 -7.6910269e-08 4.5723547e-06)
(0.0011202184 -9.0474782e-08 2.5666012e-06)
(0.0010161197 1.1944922e-09 2.1666563e-07)
(0.0010560917 1.5530527e-09 -4.3288775e-07)
(0.0010875473 5.9891952e-10 -2.0621447e-06)
(0.0011034491 -4.6438461e-10 -4.647896e-06)
(0.0011074218 -9.6415198e-10 -8.5003584e-06)
(0.0011021725 -9.770916e-10 -1.4557456e-05)
(0.0010875709 -7.8851049e-10 -2.444008e-05)
(0.0010608466 -5.8367564e-10 -4.0975082e-05)
(0.0010165429 -4.8057366e-10 -6.9405153e-05)
(0.00094009853 -4.7924676e-10 -0.00011966486)